MODEL 1
REMARK VINA RESULT:      -6.1      0.000      0.000
REMARK  5 active torsions:
REMARK  status: ('A' for Active; 'I' for Inactive)
REMARK    1  A    between atoms: C5_5  and  C7_9 
REMARK    2  A    between atoms: C7_9  and  C8_10 
REMARK    3  A    between atoms: C7_9  and  N1_16 
REMARK    4  A    between atoms: C9_11  and  O1_17 
REMARK    5  A    between atoms: N1_16  and  C17_22 
ROOT
ATOM      1  C1  UNK A          58.460  22.945  30.744  0.00  0.00     0.059 A 
ATOM      2  C2  UNK A          58.240  22.196  31.912  0.00  0.00     0.022 A 
ATOM      3  C3  UNK A          57.598  22.785  33.008  0.00  0.00     0.002 A 
ATOM      4  C4  UNK A          57.182  24.124  32.942  0.00  0.00     0.008 A 
ATOM      5  C5  UNK A          57.406  24.899  31.781  0.00  0.00    -0.003 A 
ATOM      6  C6  UNK A          58.043  24.291  30.673  0.00  0.00     0.065 A 
ATOM      7 Cl1  UNK A          59.258  22.164  29.391  0.00  0.00    -0.083 Cl
ATOM      8 Cl2  UNK A          58.320  25.187  29.187  0.00  0.00    -0.082 Cl
ENDROOT
BRANCH   5   9
ATOM      9  C7  UNK A          56.944  26.363  31.725  0.00  0.00     0.137 C 
BRANCH   9  10
ATOM     10  C8  UNK A          55.416  26.468  31.870  0.00  0.00     0.009 A 
ATOM     11  C9  UNK A          54.548  26.266  30.767  0.00  0.00     0.103 A 
ATOM     12  C10 UNK A          53.146  26.402  30.911  0.00  0.00     0.101 A 
ATOM     13  C11 UNK A          52.625  26.724  32.186  0.00  0.00     0.003 A 
ATOM     14  N2  UNK A          52.321  26.233  29.851  0.00  0.00    -0.254 NA
ATOM     15  C12 UNK A          53.479  26.915  33.282  0.00  0.00     0.011 A 
ATOM     16  C16 UNK A          51.234  26.855  32.352  0.00  0.00     0.012 A 
ATOM     17  C13 UNK A          54.865  26.797  33.123  0.00  0.00     0.009 A 
ATOM     18  C15 UNK A          50.403  26.672  31.240  0.00  0.00     0.021 A 
ATOM     19  C14 UNK A          50.991  26.366  30.006  0.00  0.00     0.112 A 
BRANCH  11  20
ATOM     20  O1  UNK A          55.058  25.949  29.536  0.00  0.00    -0.358 OA
ATOM     21  H1  UNK A          55.875  25.440  29.658  0.00  0.00     0.218 HD
ENDBRANCH  11  20
ENDBRANCH   9  10
BRANCH   9  22
ATOM     22  N1  UNK A          57.671  27.189  32.719  0.00  0.00    -0.318 N 
ATOM     23  HN1 UNK A          57.602  26.893  33.684  0.00  0.00     0.149 HD
BRANCH  22  24
ATOM     24  C17 UNK A          58.656  28.137  32.441  0.00  0.00     0.118 A 
ATOM     25  C18 UNK A          59.572  27.906  31.397  0.00  0.00     0.044 A 
ATOM     26  C19 UNK A          60.590  28.844  31.156  0.00  0.00     0.008 A 
ATOM     27  C20 UNK A          60.662  29.988  31.973  0.00  0.00    -0.033 A 
ATOM     28  C21 UNK A          59.696  30.145  32.983  0.00  0.00     0.116 A 
ATOM     29  C22 UNK A          61.758  31.024  31.786  0.00  0.00     0.046 C 
ATOM     30  N3  UNK A          58.719  29.246  33.208  0.00  0.00    -0.241 NA
ENDBRANCH  22  24
ENDBRANCH   9  22
ENDBRANCH   5   9
TORSDOF 5
ENDMDL
MODEL 2
REMARK VINA RESULT:      -6.0     25.648     27.928
REMARK  5 active torsions:
REMARK  status: ('A' for Active; 'I' for Inactive)
REMARK    1  A    between atoms: C5_5  and  C7_9 
REMARK    2  A    between atoms: C7_9  and  C8_10 
REMARK    3  A    between atoms: C7_9  and  N1_16 
REMARK    4  A    between atoms: C9_11  and  O1_17 
REMARK    5  A    between atoms: N1_16  and  C17_22 
ROOT
ATOM      1  C1  UNK A          47.590  15.714  52.577  0.00  0.00     0.059 A 
ATOM      2  C2  UNK A          47.939  16.406  51.407  0.00  0.00     0.022 A 
ATOM      3  C3  UNK A          47.301  17.611  51.091  0.00  0.00     0.002 A 
ATOM      4  C4  UNK A          46.306  18.122  51.940  0.00  0.00     0.008 A 
ATOM      5  C5  UNK A          45.930  17.434  53.117  0.00  0.00    -0.003 A 
ATOM      6  C6  UNK A          46.592  16.224  53.434  0.00  0.00     0.065 A 
ATOM      7 Cl1  UNK A          48.424  14.213  52.939  0.00  0.00    -0.083 Cl
ATOM      8 Cl2  UNK A          46.198  15.336  54.899  0.00  0.00    -0.082 Cl
ENDROOT
BRANCH   5   9
ATOM      9  C7  UNK A          44.840  18.007  54.035  0.00  0.00     0.137 C 
BRANCH   9  10
ATOM     10  C8  UNK A          45.458  18.710  55.256  0.00  0.00     0.009 A 
ATOM     11  C9  UNK A          44.903  18.576  56.553  0.00  0.00     0.103 A 
ATOM     12  C10 UNK A          45.463  19.260  57.658  0.00  0.00     0.101 A 
ATOM     13  C11 UNK A          46.606  20.066  57.447  0.00  0.00     0.003 A 
ATOM     14  N2  UNK A          44.916  19.148  58.893  0.00  0.00    -0.254 NA
ATOM     15  C12 UNK A          47.164  20.195  56.167  0.00  0.00     0.011 A 
ATOM     16  C16 UNK A          47.184  20.747  58.534  0.00  0.00     0.012 A 
ATOM     17  C13 UNK A          46.590  19.529  55.077  0.00  0.00     0.009 A 
ATOM     18  C15 UNK A          46.600  20.613  59.800  0.00  0.00     0.021 A 
ATOM     19  C14 UNK A          45.463  19.805  59.932  0.00  0.00     0.112 A 
BRANCH  11  20
ATOM     20  O1  UNK A          43.799  17.788  56.753  0.00  0.00    -0.358 OA
ATOM     21  H1  UNK A          43.916  16.958  56.266  0.00  0.00     0.218 HD
ENDBRANCH  11  20
ENDBRANCH   9  10
BRANCH   9  22
ATOM     22  N1  UNK A          43.913  18.882  53.279  0.00  0.00    -0.318 N 
ATOM     23  HN1 UNK A          44.313  19.398  52.506  0.00  0.00     0.149 HD
BRANCH  22  24
ATOM     24  C17 UNK A          42.519  18.848  53.333  0.00  0.00     0.118 A 
ATOM     25  C18 UNK A          41.774  18.813  52.139  0.00  0.00     0.044 A 
ATOM     26  C19 UNK A          40.371  18.828  52.203  0.00  0.00     0.008 A 
ATOM     27  C20 UNK A          39.753  18.882  53.467  0.00  0.00    -0.033 A 
ATOM     28  C21 UNK A          40.575  18.900  54.607  0.00  0.00     0.116 A 
ATOM     29  C22 UNK A          38.240  18.935  53.604  0.00  0.00     0.046 C 
ATOM     30  N3  UNK A          41.920  18.881  54.542  0.00  0.00    -0.241 NA
ENDBRANCH  22  24
ENDBRANCH   9  22
ENDBRANCH   5   9
TORSDOF 5
ENDMDL
MODEL 3
REMARK VINA RESULT:      -6.0     23.886     26.190
REMARK  5 active torsions:
REMARK  status: ('A' for Active; 'I' for Inactive)
REMARK    1  A    between atoms: C5_5  and  C7_9 
REMARK    2  A    between atoms: C7_9  and  C8_10 
REMARK    3  A    between atoms: C7_9  and  N1_16 
REMARK    4  A    between atoms: C9_11  and  O1_17 
REMARK    5  A    between atoms: N1_16  and  C17_22 
ROOT
ATOM      1  C1  UNK A          63.568   3.570  30.022  0.00  0.00     0.059 A 
ATOM      2  C2  UNK A          62.344   2.964  30.345  0.00  0.00     0.022 A 
ATOM      3  C3  UNK A          62.275   2.048  31.402  0.00  0.00     0.002 A 
ATOM      4  C4  UNK A          63.432   1.731  32.132  0.00  0.00     0.008 A 
ATOM      5  C5  UNK A          64.677   2.320  31.814  0.00  0.00    -0.003 A 
ATOM      6  C6  UNK A          64.733   3.255  30.753  0.00  0.00     0.065 A 
ATOM      7 Cl1  UNK A          63.606   4.720  28.698  0.00  0.00    -0.083 Cl
ATOM      8 Cl2  UNK A          66.242   4.050  30.329  0.00  0.00    -0.082 Cl
ENDROOT
BRANCH   5   9
ATOM      9  C7  UNK A          65.933   1.962  32.623  0.00  0.00     0.137 C 
BRANCH   9  10
ATOM     10  C8  UNK A          66.396   3.151  33.482  0.00  0.00     0.009 A 
ATOM     11  C9  UNK A          67.731   3.258  33.948  0.00  0.00     0.103 A 
ATOM     12  C10 UNK A          68.130   4.341  34.768  0.00  0.00     0.101 A 
ATOM     13  C11 UNK A          67.174   5.329  35.097  0.00  0.00     0.003 A 
ATOM     14  N2  UNK A          69.400   4.428  35.231  0.00  0.00    -0.254 NA
ATOM     15  C12 UNK A          65.855   5.232  34.631  0.00  0.00     0.011 A 
ATOM     16  C16 UNK A          67.553   6.418  35.903  0.00  0.00     0.012 A 
ATOM     17  C13 UNK A          65.466   4.147  33.836  0.00  0.00     0.009 A 
ATOM     18  C15 UNK A          68.873   6.486  36.367  0.00  0.00     0.021 A 
ATOM     19  C14 UNK A          69.763   5.464  36.009  0.00  0.00     0.112 A 
BRANCH  11  20
ATOM     20  O1  UNK A          68.656   2.300  33.621  0.00  0.00    -0.358 OA
ATOM     21  H1  UNK A          68.188   1.499  33.339  0.00  0.00     0.218 HD
ENDBRANCH  11  20
ENDBRANCH   9  10
BRANCH   9  22
ATOM     22  N1  UNK A          65.720   0.729  33.419  0.00  0.00    -0.318 N 
ATOM     23  HN1 UNK A          65.809  -0.147  32.920  0.00  0.00     0.149 HD
BRANCH  22  24
ATOM     24  C17 UNK A          65.698   0.640  34.811  0.00  0.00     0.118 A 
ATOM     25  C18 UNK A          64.526   0.980  35.513  0.00  0.00     0.044 A 
ATOM     26  C19 UNK A          64.529   0.934  36.917  0.00  0.00     0.008 A 
ATOM     27  C20 UNK A          65.710   0.549  37.579  0.00  0.00    -0.033 A 
ATOM     28  C21 UNK A          66.829   0.212  36.796  0.00  0.00     0.116 A 
ATOM     29  C22 UNK A          65.789   0.511  39.096  0.00  0.00     0.046 C 
ATOM     30  N3  UNK A          66.822   0.254  35.451  0.00  0.00    -0.241 NA
ENDBRANCH  22  24
ENDBRANCH   9  22
ENDBRANCH   5   9
TORSDOF 5
ENDMDL
MODEL 4
REMARK VINA RESULT:      -5.8     23.589     26.363
REMARK  5 active torsions:
REMARK  status: ('A' for Active; 'I' for Inactive)
REMARK    1  A    between atoms: C5_5  and  C7_9 
REMARK    2  A    between atoms: C7_9  and  C8_10 
REMARK    3  A    between atoms: C7_9  and  N1_16 
REMARK    4  A    between atoms: C9_11  and  O1_17 
REMARK    5  A    between atoms: N1_16  and  C17_22 
ROOT
ATOM      1  C1  UNK A          69.494   5.222  35.523  0.00  0.00     0.059 A 
ATOM      2  C2  UNK A          68.875   6.344  36.097  0.00  0.00     0.022 A 
ATOM      3  C3  UNK A          67.508   6.570  35.891  0.00  0.00     0.002 A 
ATOM      4  C4  UNK A          66.760   5.680  35.103  0.00  0.00     0.008 A 
ATOM      5  C5  UNK A          67.368   4.551  34.505  0.00  0.00    -0.003 A 
ATOM      6  C6  UNK A          68.746   4.325  34.731  0.00  0.00     0.065 A 
ATOM      7 Cl1  UNK A          71.205   4.972  35.817  0.00  0.00    -0.083 Cl
ATOM      8 Cl2  UNK A          69.555   2.923  34.046  0.00  0.00    -0.082 Cl
ENDROOT
BRANCH   5   9
ATOM      9  C7  UNK A          66.535   3.588  33.646  0.00  0.00     0.137 C 
BRANCH   9  10
ATOM     10  C8  UNK A          66.072   2.372  34.468  0.00  0.00     0.009 A 
ATOM     11  C9  UNK A          66.289   1.044  34.022  0.00  0.00     0.103 A 
ATOM     12  C10 UNK A          65.824  -0.060  34.775  0.00  0.00     0.101 A 
ATOM     13  C11 UNK A          65.154   0.186  35.996  0.00  0.00     0.003 A 
ATOM     14  N2  UNK A          66.011  -1.328  34.334  0.00  0.00    -0.254 NA
ATOM     15  C12 UNK A          64.946   1.498  36.446  0.00  0.00     0.011 A 
ATOM     16  C16 UNK A          64.692  -0.899  36.763  0.00  0.00     0.012 A 
ATOM     17  C13 UNK A          65.393   2.583  35.684  0.00  0.00     0.009 A 
ATOM     18  C15 UNK A          64.901  -2.199  36.286  0.00  0.00     0.021 A 
ATOM     19  C14 UNK A          65.563  -2.366  35.062  0.00  0.00     0.112 A 
BRANCH  11  20
ATOM     20  O1  UNK A          66.943   0.811  32.841  0.00  0.00    -0.358 OA
ATOM     21  H1  UNK A          67.183  -0.127  32.797  0.00  0.00     0.218 HD
ENDBRANCH  11  20
ENDBRANCH   9  10
BRANCH   9  22
ATOM     22  N1  UNK A          65.411   4.296  32.988  0.00  0.00    -0.318 N 
ATOM     23  HN1 UNK A          65.168   5.201  33.369  0.00  0.00     0.149 HD
BRANCH  22  24
ATOM     24  C17 UNK A          64.856   3.986  31.746  0.00  0.00     0.118 A 
ATOM     25  C18 UNK A          63.809   4.775  31.234  0.00  0.00     0.044 A 
ATOM     26  C19 UNK A          63.223   4.427  30.005  0.00  0.00     0.008 A 
ATOM     27  C20 UNK A          63.703   3.292  29.325  0.00  0.00    -0.033 A 
ATOM     28  C21 UNK A          64.763   2.571  29.905  0.00  0.00     0.116 A 
ATOM     29  C22 UNK A          63.091   2.842  28.009  0.00  0.00     0.046 C 
ATOM     30  N3  UNK A          65.324   2.910  31.080  0.00  0.00    -0.241 NA
ENDBRANCH  22  24
ENDBRANCH   9  22
ENDBRANCH   5   9
TORSDOF 5
ENDMDL
MODEL 5
REMARK VINA RESULT:      -5.7     24.259     27.074
REMARK  5 active torsions:
REMARK  status: ('A' for Active; 'I' for Inactive)
REMARK    1  A    between atoms: C5_5  and  C7_9 
REMARK    2  A    between atoms: C7_9  and  C8_10 
REMARK    3  A    between atoms: C7_9  and  N1_16 
REMARK    4  A    between atoms: C9_11  and  O1_17 
REMARK    5  A    between atoms: N1_16  and  C17_22 
ROOT
ATOM      1  C1  UNK A          63.382   3.859  31.051  0.00  0.00     0.059 A 
ATOM      2  C2  UNK A          62.343   2.946  30.815  0.00  0.00     0.022 A 
ATOM      3  C3  UNK A          62.477   1.613  31.224  0.00  0.00     0.002 A 
ATOM      4  C4  UNK A          63.654   1.190  31.862  0.00  0.00     0.008 A 
ATOM      5  C5  UNK A          64.718   2.091  32.098  0.00  0.00    -0.003 A 
ATOM      6  C6  UNK A          64.566   3.439  31.693  0.00  0.00     0.065 A 
ATOM      7 Cl1  UNK A          63.166   5.522  30.533  0.00  0.00    -0.083 Cl
ATOM      8 Cl2  UNK A          65.836   4.618  31.987  0.00  0.00    -0.082 Cl
ENDROOT
BRANCH   5   9
ATOM      9  C7  UNK A          65.999   1.612  32.797  0.00  0.00     0.137 C 
BRANCH   9  10
ATOM     10  C8  UNK A          65.674   0.918  34.132  0.00  0.00     0.009 A 
ATOM     11  C9  UNK A          65.509   1.653  35.333  0.00  0.00     0.103 A 
ATOM     12  C10 UNK A          65.246   0.995  36.558  0.00  0.00     0.101 A 
ATOM     13  C11 UNK A          65.130  -0.415  36.558  0.00  0.00     0.003 A 
ATOM     14  N2  UNK A          65.113   1.698  37.708  0.00  0.00    -0.254 NA
ATOM     15  C12 UNK A          65.283  -1.145  35.370  0.00  0.00     0.011 A 
ATOM     16  C16 UNK A          64.861  -1.087  37.763  0.00  0.00     0.012 A 
ATOM     17  C13 UNK A          65.562  -0.485  34.168  0.00  0.00     0.009 A 
ATOM     18  C15 UNK A          64.725  -0.337  38.938  0.00  0.00     0.021 A 
ATOM     19  C14 UNK A          64.863   1.056  38.864  0.00  0.00     0.112 A 
BRANCH  11  20
ATOM     20  O1  UNK A          65.617   3.020  35.326  0.00  0.00    -0.358 OA
ATOM     21  H1  UNK A          64.775   3.401  35.622  0.00  0.00     0.218 HD
ENDBRANCH  11  20
ENDBRANCH   9  10
BRANCH   9  22
ATOM     22  N1  UNK A          66.813   0.764  31.895  0.00  0.00    -0.318 N 
ATOM     23  HN1 UNK A          66.927  -0.203  32.170  0.00  0.00     0.149 HD
BRANCH  22  24
ATOM     24  C17 UNK A          67.187   1.074  30.587  0.00  0.00     0.118 A 
ATOM     25  C18 UNK A          66.765   0.251  29.526  0.00  0.00     0.044 A 
ATOM     26  C19 UNK A          67.186   0.544  28.218  0.00  0.00     0.008 A 
ATOM     27  C20 UNK A          68.026   1.655  28.012  0.00  0.00    -0.033 A 
ATOM     28  C21 UNK A          68.387   2.430  29.129  0.00  0.00     0.116 A 
ATOM     29  C22 UNK A          68.545   2.007  26.627  0.00  0.00     0.046 C 
ATOM     30  N3  UNK A          67.977   2.149  30.380  0.00  0.00    -0.241 NA
ENDBRANCH  22  24
ENDBRANCH   9  22
ENDBRANCH   5   9
TORSDOF 5
ENDMDL
MODEL 6
REMARK VINA RESULT:      -5.7     25.642     27.904
REMARK  5 active torsions:
REMARK  status: ('A' for Active; 'I' for Inactive)
REMARK    1  A    between atoms: C5_5  and  C7_9 
REMARK    2  A    between atoms: C7_9  and  C8_10 
REMARK    3  A    between atoms: C7_9  and  N1_16 
REMARK    4  A    between atoms: C9_11  and  O1_17 
REMARK    5  A    between atoms: N1_16  and  C17_22 
ROOT
ATOM      1  C1  UNK A          47.422  20.403  58.754  0.00  0.00     0.059 A 
ATOM      2  C2  UNK A          48.295  21.415  58.325  0.00  0.00     0.022 A 
ATOM      3  C3  UNK A          48.297  21.812  56.981  0.00  0.00     0.002 A 
ATOM      4  C4  UNK A          47.434  21.191  56.064  0.00  0.00     0.008 A 
ATOM      5  C5  UNK A          46.557  20.160  56.475  0.00  0.00    -0.003 A 
ATOM      6  C6  UNK A          46.552  19.777  57.837  0.00  0.00     0.065 A 
ATOM      7 Cl1  UNK A          47.444  19.946  60.448  0.00  0.00    -0.083 Cl
ATOM      8 Cl2  UNK A          45.463  18.527  58.420  0.00  0.00    -0.082 Cl
ENDROOT
BRANCH   5   9
ATOM      9  C7  UNK A          45.619  19.491  55.458  0.00  0.00     0.137 C 
BRANCH   9  10
ATOM     10  C8  UNK A          46.339  18.363  54.699  0.00  0.00     0.009 A 
ATOM     11  C9  UNK A          46.292  18.268  53.285  0.00  0.00     0.103 A 
ATOM     12  C10 UNK A          46.930  17.202  52.607  0.00  0.00     0.101 A 
ATOM     13  C11 UNK A          47.638  16.242  53.367  0.00  0.00     0.003 A 
ATOM     14  N2  UNK A          46.862  17.100  51.258  0.00  0.00    -0.254 NA
ATOM     15  C12 UNK A          47.696  16.338  54.765  0.00  0.00     0.011 A 
ATOM     16  C16 UNK A          48.287  15.181  52.711  0.00  0.00     0.012 A 
ATOM     17  C13 UNK A          47.045  17.386  55.427  0.00  0.00     0.009 A 
ATOM     18  C15 UNK A          48.203  15.100  51.315  0.00  0.00     0.021 A 
ATOM     19  C14 UNK A          47.476  16.081  50.629  0.00  0.00     0.112 A 
BRANCH  11  20
ATOM     20  O1  UNK A          45.609  19.204  52.553  0.00  0.00    -0.358 OA
ATOM     21  H1  UNK A          46.150  19.458  51.789  0.00  0.00     0.218 HD
ENDBRANCH  11  20
ENDBRANCH   9  10
BRANCH   9  22
ATOM     22  N1  UNK A          44.367  19.035  56.108  0.00  0.00    -0.318 N 
ATOM     23  HN1 UNK A          44.214  19.353  57.056  0.00  0.00     0.149 HD
BRANCH  22  24
ATOM     24  C17 UNK A          43.265  18.469  55.468  0.00  0.00     0.118 A 
ATOM     25  C18 UNK A          42.478  17.518  56.144  0.00  0.00     0.044 A 
ATOM     26  C19 UNK A          41.398  16.917  55.474  0.00  0.00     0.008 A 
ATOM     27  C20 UNK A          41.142  17.285  54.140  0.00  0.00    -0.033 A 
ATOM     28  C21 UNK A          41.971  18.254  53.548  0.00  0.00     0.116 A 
ATOM     29  C22 UNK A          40.011  16.648  53.349  0.00  0.00     0.046 C 
ATOM     30  N3  UNK A          43.001  18.831  54.195  0.00  0.00    -0.241 NA
ENDBRANCH  22  24
ENDBRANCH   9  22
ENDBRANCH   5   9
TORSDOF 5
ENDMDL
MODEL 7
REMARK VINA RESULT:      -5.7     25.165     26.868
REMARK  5 active torsions:
REMARK  status: ('A' for Active; 'I' for Inactive)
REMARK    1  A    between atoms: C5_5  and  C7_9 
REMARK    2  A    between atoms: C7_9  and  C8_10 
REMARK    3  A    between atoms: C7_9  and  N1_16 
REMARK    4  A    between atoms: C9_11  and  O1_17 
REMARK    5  A    between atoms: N1_16  and  C17_22 
ROOT
ATOM      1  C1  UNK A          48.562  15.136  52.678  0.00  0.00     0.059 A 
ATOM      2  C2  UNK A          48.402  15.258  51.289  0.00  0.00     0.022 A 
ATOM      3  C3  UNK A          47.651  16.316  50.762  0.00  0.00     0.002 A 
ATOM      4  C4  UNK A          47.053  17.249  51.623  0.00  0.00     0.008 A 
ATOM      5  C5  UNK A          47.191  17.137  53.026  0.00  0.00    -0.003 A 
ATOM      6  C6  UNK A          47.963  16.072  53.548  0.00  0.00     0.065 A 
ATOM      7 Cl1  UNK A          49.520  13.802  53.294  0.00  0.00    -0.083 Cl
ATOM      8 Cl2  UNK A          48.203  15.895  55.280  0.00  0.00    -0.082 Cl
ENDROOT
BRANCH   5   9
ATOM      9  C7  UNK A          46.529  18.167  53.954  0.00  0.00     0.137 C 
BRANCH   9  10
ATOM     10  C8  UNK A          45.032  17.863  54.140  0.00  0.00     0.009 A 
ATOM     11  C9  UNK A          44.038  18.514  53.368  0.00  0.00     0.103 A 
ATOM     12  C10 UNK A          42.664  18.248  53.578  0.00  0.00     0.101 A 
ATOM     13  C11 UNK A          42.300  17.301  54.564  0.00  0.00     0.003 A 
ATOM     14  N2  UNK A          41.715  18.890  52.855  0.00  0.00    -0.254 NA
ATOM     15  C12 UNK A          43.281  16.647  55.324  0.00  0.00     0.011 A 
ATOM     16  C16 UNK A          40.940  17.016  54.782  0.00  0.00     0.012 A 
ATOM     17  C13 UNK A          44.637  16.932  55.120  0.00  0.00     0.009 A 
ATOM     18  C15 UNK A          39.979  17.691  54.019  0.00  0.00     0.021 A 
ATOM     19  C14 UNK A          40.413  18.624  53.068  0.00  0.00     0.112 A 
BRANCH  11  20
ATOM     20  O1  UNK A          44.396  19.427  52.410  0.00  0.00    -0.358 OA
ATOM     21  H1  UNK A          43.688  20.086  52.327  0.00  0.00     0.218 HD
ENDBRANCH  11  20
ENDBRANCH   9  10
BRANCH   9  22
ATOM     22  N1  UNK A          47.257  18.270  55.241  0.00  0.00    -0.318 N 
ATOM     23  HN1 UNK A          48.061  17.666  55.350  0.00  0.00     0.149 HD
BRANCH  22  24
ATOM     24  C17 UNK A          47.129  19.293  56.181  0.00  0.00     0.118 A 
ATOM     25  C18 UNK A          47.276  20.634  55.778  0.00  0.00     0.044 A 
ATOM     26  C19 UNK A          47.193  21.654  56.741  0.00  0.00     0.008 A 
ATOM     27  C20 UNK A          46.970  21.299  58.084  0.00  0.00    -0.033 A 
ATOM     28  C21 UNK A          46.821  19.935  58.394  0.00  0.00     0.116 A 
ATOM     29  C22 UNK A          46.904  22.352  59.178  0.00  0.00     0.046 C 
ATOM     30  N3  UNK A          46.895  18.961  57.469  0.00  0.00    -0.241 NA
ENDBRANCH  22  24
ENDBRANCH   9  22
ENDBRANCH   5   9
TORSDOF 5
ENDMDL
MODEL 8
REMARK VINA RESULT:      -5.7     18.968     21.579
REMARK  5 active torsions:
REMARK  status: ('A' for Active; 'I' for Inactive)
REMARK    1  A    between atoms: C5_5  and  C7_9 
REMARK    2  A    between atoms: C7_9  and  C8_10 
REMARK    3  A    between atoms: C7_9  and  N1_16 
REMARK    4  A    between atoms: C9_11  and  O1_17 
REMARK    5  A    between atoms: N1_16  and  C17_22 
ROOT
ATOM      1  C1  UNK A          64.368  17.762  52.016  0.00  0.00     0.059 A 
ATOM      2  C2  UNK A          65.487  17.398  52.781  0.00  0.00     0.022 A 
ATOM      3  C3  UNK A          66.729  17.216  52.159  0.00  0.00     0.002 A 
ATOM      4  C4  UNK A          66.851  17.388  50.771  0.00  0.00     0.008 A 
ATOM      5  C5  UNK A          65.733  17.741  49.981  0.00  0.00    -0.003 A 
ATOM      6  C6  UNK A          64.486  17.937  50.620  0.00  0.00     0.065 A 
ATOM      7 Cl1  UNK A          62.834  17.992  52.837  0.00  0.00    -0.083 Cl
ATOM      8 Cl2  UNK A          63.065  18.412  49.702  0.00  0.00    -0.082 Cl
ENDROOT
BRANCH   5   9
ATOM      9  C7  UNK A          65.885  17.926  48.463  0.00  0.00     0.137 C 
BRANCH   9  10
ATOM     10  C8  UNK A          65.824  19.414  48.078  0.00  0.00     0.009 A 
ATOM     11  C9  UNK A          65.333  19.838  46.817  0.00  0.00     0.103 A 
ATOM     12  C10 UNK A          65.318  21.209  46.466  0.00  0.00     0.101 A 
ATOM     13  C11 UNK A          65.785  22.154  47.409  0.00  0.00     0.003 A 
ATOM     14  N2  UNK A          64.871  21.609  45.251  0.00  0.00    -0.254 NA
ATOM     15  C12 UNK A          66.263  21.740  48.661  0.00  0.00     0.011 A 
ATOM     16  C16 UNK A          65.770  23.523  47.083  0.00  0.00     0.012 A 
ATOM     17  C13 UNK A          66.290  20.380  48.990  0.00  0.00     0.009 A 
ATOM     18  C15 UNK A          65.301  23.909  45.821  0.00  0.00     0.021 A 
ATOM     19  C14 UNK A          64.863  22.916  44.934  0.00  0.00     0.112 A 
BRANCH  11  20
ATOM     20  O1  UNK A          64.876  18.918  45.909  0.00  0.00    -0.358 OA
ATOM     21  H1  UNK A          65.396  18.999  45.094  0.00  0.00     0.218 HD
ENDBRANCH  11  20
ENDBRANCH   9  10
BRANCH   9  22
ATOM     22  N1  UNK A          67.109  17.255  47.965  0.00  0.00    -0.318 N 
ATOM     23  HN1 UNK A          67.988  17.701  48.190  0.00  0.00     0.149 HD
BRANCH  22  24
ATOM     24  C17 UNK A          67.194  15.949  47.479  0.00  0.00     0.118 A 
ATOM     25  C18 UNK A          66.066  15.108  47.538  0.00  0.00     0.044 A 
ATOM     26  C19 UNK A          66.175  13.781  47.091  0.00  0.00     0.008 A 
ATOM     27  C20 UNK A          67.416  13.332  46.601  0.00  0.00    -0.033 A 
ATOM     28  C21 UNK A          68.485  14.245  46.567  0.00  0.00     0.116 A 
ATOM     29  C22 UNK A          67.609  11.899  46.135  0.00  0.00     0.046 C 
ATOM     30  N3  UNK A          68.375  15.518  46.991  0.00  0.00    -0.241 NA
ENDBRANCH  22  24
ENDBRANCH   9  22
ENDBRANCH   5   9
TORSDOF 5
ENDMDL
MODEL 9
REMARK VINA RESULT:      -5.6      4.646      8.203
REMARK  5 active torsions:
REMARK  status: ('A' for Active; 'I' for Inactive)
REMARK    1  A    between atoms: C5_5  and  C7_9 
REMARK    2  A    between atoms: C7_9  and  C8_10 
REMARK    3  A    between atoms: C7_9  and  N1_16 
REMARK    4  A    between atoms: C9_11  and  O1_17 
REMARK    5  A    between atoms: N1_16  and  C17_22 
ROOT
ATOM      1  C1  UNK A          61.898  21.915  26.242  0.00  0.00     0.059 A 
ATOM      2  C2  UNK A          62.210  23.262  26.487  0.00  0.00     0.022 A 
ATOM      3  C3  UNK A          61.448  24.000  27.402  0.00  0.00     0.002 A 
ATOM      4  C4  UNK A          60.368  23.396  28.065  0.00  0.00     0.008 A 
ATOM      5  C5  UNK A          60.029  22.045  27.822  0.00  0.00    -0.003 A 
ATOM      6  C6  UNK A          60.814  21.303  26.907  0.00  0.00     0.065 A 
ATOM      7 Cl1  UNK A          62.886  21.025  25.098  0.00  0.00    -0.083 Cl
ATOM      8 Cl2  UNK A          60.469  19.610  26.586  0.00  0.00    -0.082 Cl
ENDROOT
BRANCH   5   9
ATOM      9  C7  UNK A          58.845  21.399  28.557  0.00  0.00     0.137 C 
BRANCH   9  10
ATOM     10  C8  UNK A          58.436  22.230  29.786  0.00  0.00     0.009 A 
ATOM     11  C9  UNK A          57.487  23.279  29.695  0.00  0.00     0.103 A 
ATOM     12  C10 UNK A          57.151  24.056  30.829  0.00  0.00     0.101 A 
ATOM     13  C11 UNK A          57.766  23.750  32.066  0.00  0.00     0.003 A 
ATOM     14  N2  UNK A          56.262  25.074  30.734  0.00  0.00    -0.254 NA
ATOM     15  C12 UNK A          58.698  22.706  32.163  0.00  0.00     0.011 A 
ATOM     16  C16 UNK A          57.438  24.504  33.207  0.00  0.00     0.012 A 
ATOM     17  C13 UNK A          59.037  21.957  31.030  0.00  0.00     0.009 A 
ATOM     18  C15 UNK A          56.515  25.550  33.081  0.00  0.00     0.021 A 
ATOM     19  C14 UNK A          55.954  25.801  31.822  0.00  0.00     0.112 A 
BRANCH  11  20
ATOM     20  O1  UNK A          56.890  23.567  28.495  0.00  0.00    -0.358 OA
ATOM     21  H1  UNK A          56.805  24.530  28.413  0.00  0.00     0.218 HD
ENDBRANCH  11  20
ENDBRANCH   9  10
BRANCH   9  22
ATOM     22  N1  UNK A          57.714  21.153  27.631  0.00  0.00    -0.318 N 
ATOM     23  HN1 UNK A          57.657  21.758  26.823  0.00  0.00     0.149 HD
BRANCH  22  24
ATOM     24  C17 UNK A          56.906  20.016  27.601  0.00  0.00     0.118 A 
ATOM     25  C18 UNK A          55.550  20.113  27.966  0.00  0.00     0.044 A 
ATOM     26  C19 UNK A          54.757  18.954  27.978  0.00  0.00     0.008 A 
ATOM     27  C20 UNK A          55.348  17.726  27.627  0.00  0.00    -0.033 A 
ATOM     28  C21 UNK A          56.707  17.724  27.262  0.00  0.00     0.116 A 
ATOM     29  C22 UNK A          54.554  16.430  27.653  0.00  0.00     0.046 C 
ATOM     30  N3  UNK A          57.462  18.838  27.246  0.00  0.00    -0.241 NA
ENDBRANCH  22  24
ENDBRANCH   9  22
ENDBRANCH   5   9
TORSDOF 5
ENDMDL
