MODEL 1
REMARK VINA RESULT:      -7.9      0.000      0.000
REMARK  7 active torsions:
REMARK  status: ('A' for Active; 'I' for Inactive)
REMARK    1  A    between atoms: C1_1  and  O1_7 
REMARK    2  A    between atoms: C3_3  and  O10_40 
REMARK    3  A    between atoms: C9_12  and  C10_13 
REMARK    4  A    between atoms: C13_16  and  O4_19 
REMARK    5  A    between atoms: O4_19  and  C16_20 
REMARK    6  A    between atoms: C17_21  and  O7_29 
REMARK    7  A    between atoms: C18_22  and  O5_24 
ROOT
ATOM      1  C1  UNK A          61.169   7.810  51.729  0.00  0.00     0.088 A 
ATOM      2  C2  UNK A          60.227   8.393  52.593  0.00  0.00     0.067 A 
ATOM      3  C3  UNK A          59.823   9.725  52.425  0.00  0.00     0.076 A 
ATOM      4  C4  UNK A          60.368  10.496  51.390  0.00  0.00     0.068 A 
ATOM      5  C5  UNK A          61.349   9.937  50.562  0.00  0.00     0.098 A 
ATOM      6  C6  UNK A          61.749   8.586  50.694  0.00  0.00     0.083 A 
ATOM      7  C7  UNK A          62.865   8.064  49.880  0.00  0.00     0.193 C 
ATOM      8  O2  UNK A          63.240   6.900  49.778  0.00  0.00    -0.289 OA
ATOM      9  C8  UNK A          63.688   9.074  49.417  0.00  0.00     0.087 C 
ATOM     10  O3  UNK A          62.021  10.792  49.732  0.00  0.00    -0.309 OA
ATOM     11  C9  UNK A          63.283  10.394  49.417  0.00  0.00     0.093 C 
ENDROOT
BRANCH   1  12
ATOM     12  O1  UNK A          61.555   6.521  51.982  0.00  0.00    -0.360 OA
ATOM     13  H1  UNK A          60.889   5.908  51.606  0.00  0.00     0.218 HD
ENDBRANCH   1  12
BRANCH   3  14
ATOM     14  O10 UNK A          58.948  10.288  53.307  0.00  0.00    -0.361 OA
ATOM     15  H10 UNK A          58.948  11.256  53.178  0.00  0.00     0.218 HD
ENDBRANCH   3  14
BRANCH  11  16
ATOM     16  C10 UNK A          64.322  11.414  49.520  0.00  0.00     0.006 A 
ATOM     17  C11 UNK A          64.642  12.041  50.735  0.00  0.00     0.013 A 
ATOM     18  C12 UNK A          65.622  13.055  50.761  0.00  0.00     0.035 A 
ATOM     19  C13 UNK A          66.309  13.417  49.584  0.00  0.00     0.082 A 
ATOM     20  C14 UNK A          66.073  12.702  48.397  0.00  0.00     0.035 A 
ATOM     21  C15 UNK A          65.071  11.719  48.362  0.00  0.00     0.013 A 
BRANCH  19  22
ATOM     22  O4  UNK A          67.043  14.597  49.567  0.00  0.00    -0.305 OA
BRANCH  22  23
ATOM     23  C16 UNK A          66.376  15.728  49.133  0.00  0.00     0.143 C 
ATOM     24  C17 UNK A          65.707  16.576  50.055  0.00  0.00     0.119 C 
ATOM     25  C21 UNK A          64.902  17.636  49.567  0.00  0.00     0.086 C 
ATOM     26  C20 UNK A          64.688  17.715  48.186  0.00  0.00     0.099 C 
ATOM     27  C22 UNK A          64.387  18.754  50.396  0.00  0.00     0.193 C 
ATOM     28  C19 UNK A          65.404  16.950  47.274  0.00  0.00     0.071 C 
ATOM     29  O6  UNK A          63.886  18.688  47.703  0.00  0.00    -0.309 OA
ATOM     30  C18 UNK A          66.296  15.989  47.744  0.00  0.00     0.108 C 
ATOM     31  C24 UNK A          64.147  19.893  48.276  0.00  0.00     0.093 C 
ATOM     32  C25 UNK A          64.451  20.954  47.443  0.00  0.00     0.006 A 
ATOM     33  C23 UNK A          64.218  19.931  49.665  0.00  0.00     0.087 C 
ATOM     34  C26 UNK A          64.878  22.170  47.917  0.00  0.00     0.015 A 
ATOM     35  C30 UNK A          64.408  20.730  46.085  0.00  0.00     0.015 A 
ATOM     36  C27 UNK A          65.295  23.138  47.017  0.00  0.00     0.053 A 
ATOM     37  C28 UNK A          65.279  22.902  45.669  0.00  0.00     0.178 A 
ATOM     38  C29 UNK A          64.826  21.704  45.203  0.00  0.00     0.053 A 
ATOM     39  O9  UNK A          65.676  23.754  44.880  0.00  0.00    -0.290 OA
ATOM     40  O8  UNK A          64.377  18.797  51.621  0.00  0.00    -0.289 OA
BRANCH  24  41
ATOM     41  O7  UNK A          65.867  16.380  51.401  0.00  0.00    -0.357 OA
ATOM     42  H7  UNK A          65.339  15.602  51.672  0.00  0.00     0.218 HD
ENDBRANCH  24  41
BRANCH  30  43
ATOM     43  O5  UNK A          67.075  15.350  46.818  0.00  0.00    -0.358 OA
ATOM     44  H5  UNK A          67.761  14.839  47.285  0.00  0.00     0.218 HD
ENDBRANCH  30  43
ENDBRANCH  22  23
ENDBRANCH  19  22
ENDBRANCH  11  16
TORSDOF 7
ENDMDL
MODEL 2
REMARK VINA RESULT:      -7.6      2.815      6.210
REMARK  7 active torsions:
REMARK  status: ('A' for Active; 'I' for Inactive)
REMARK    1  A    between atoms: C1_1  and  O1_7 
REMARK    2  A    between atoms: C3_3  and  O10_40 
REMARK    3  A    between atoms: C9_12  and  C10_13 
REMARK    4  A    between atoms: C13_16  and  O4_19 
REMARK    5  A    between atoms: O4_19  and  C16_20 
REMARK    6  A    between atoms: C17_21  and  O7_29 
REMARK    7  A    between atoms: C18_22  and  O5_24 
ROOT
ATOM      1  C1  UNK A          66.966  10.908  50.081  0.00  0.00     0.088 A 
ATOM      2  C2  UNK A          65.811  10.113  49.993  0.00  0.00     0.067 A 
ATOM      3  C3  UNK A          64.805  10.403  49.061  0.00  0.00     0.076 A 
ATOM      4  C4  UNK A          64.939  11.506  48.207  0.00  0.00     0.068 A 
ATOM      5  C5  UNK A          66.062  12.335  48.329  0.00  0.00     0.098 A 
ATOM      6  C6  UNK A          67.103  12.043  49.242  0.00  0.00     0.083 A 
ATOM      7  C7  UNK A          68.214  12.999  49.423  0.00  0.00     0.193 C 
ATOM      8  O2  UNK A          69.248  12.836  50.064  0.00  0.00    -0.289 OA
ATOM      9  C8  UNK A          67.872  14.277  49.020  0.00  0.00     0.087 C 
ATOM     10  O3  UNK A          66.031  13.523  47.651  0.00  0.00    -0.309 OA
ATOM     11  C9  UNK A          66.773  14.512  48.218  0.00  0.00     0.093 C 
ENDROOT
BRANCH   1  12
ATOM     12  O1  UNK A          67.883  10.597  51.048  0.00  0.00    -0.360 OA
ATOM     13  H1  UNK A          68.275   9.722  50.847  0.00  0.00     0.218 HD
ENDBRANCH   1  12
BRANCH   3  14
ATOM     14  O10 UNK A          63.668   9.651  49.028  0.00  0.00    -0.361 OA
ATOM     15  H10 UNK A          63.037  10.002  49.686  0.00  0.00     0.218 HD
ENDBRANCH   3  14
BRANCH  11  16
ATOM     16  C10 UNK A          66.124  15.814  48.336  0.00  0.00     0.006 A 
ATOM     17  C11 UNK A          65.987  16.475  49.568  0.00  0.00     0.013 A 
ATOM     18  C12 UNK A          65.304  17.708  49.626  0.00  0.00     0.035 A 
ATOM     19  C13 UNK A          64.793  18.300  48.453  0.00  0.00     0.082 A 
ATOM     20  C14 UNK A          65.041  17.695  47.208  0.00  0.00     0.035 A 
ATOM     21  C15 UNK A          65.686  16.449  47.154  0.00  0.00     0.013 A 
BRANCH  19  22
ATOM     22  O4  UNK A          63.885  19.345  48.564  0.00  0.00    -0.305 OA
BRANCH  22  23
ATOM     23  C16 UNK A          64.401  20.622  48.441  0.00  0.00     0.143 C 
ATOM     24  C17 UNK A          64.505  21.244  47.170  0.00  0.00     0.119 C 
ATOM     25  C21 UNK A          65.181  22.486  47.056  0.00  0.00     0.086 C 
ATOM     26  C20 UNK A          65.841  22.979  48.187  0.00  0.00     0.099 C 
ATOM     27  C22 UNK A          65.120  23.374  45.869  0.00  0.00     0.193 C 
ATOM     28  C19 UNK A          65.672  22.427  49.451  0.00  0.00     0.071 C 
ATOM     29  O6  UNK A          66.532  24.135  48.090  0.00  0.00    -0.309 OA
ATOM     30  C18 UNK A          64.902  21.275  49.593  0.00  0.00     0.108 C 
ATOM     31  C24 UNK A          65.834  25.088  47.417  0.00  0.00     0.093 C 
ATOM     32  C25 UNK A          65.618  26.300  48.048  0.00  0.00     0.006 A 
ATOM     33  C23 UNK A          65.275  24.721  46.197  0.00  0.00     0.087 C 
ATOM     34  C26 UNK A          64.801  27.272  47.528  0.00  0.00     0.015 A 
ATOM     35  C30 UNK A          66.180  26.478  49.292  0.00  0.00     0.015 A 
ATOM     36  C27 UNK A          64.527  28.401  48.283  0.00  0.00     0.053 A 
ATOM     37  C28 UNK A          65.063  28.562  49.532  0.00  0.00     0.178 A 
ATOM     38  C29 UNK A          65.897  27.607  50.032  0.00  0.00     0.053 A 
ATOM     39  O9  UNK A          64.793  29.551  50.206  0.00  0.00    -0.290 OA
ATOM     40  O8  UNK A          64.692  23.066  44.761  0.00  0.00    -0.289 OA
BRANCH  24  41
ATOM     41  O7  UNK A          63.931  20.656  46.074  0.00  0.00    -0.357 OA
ATOM     42  H7  UNK A          63.787  21.339  45.388  0.00  0.00     0.218 HD
ENDBRANCH  24  41
BRANCH  30  43
ATOM     43  O5  UNK A          64.653  20.840  50.866  0.00  0.00    -0.358 OA
ATOM     44  H5  UNK A          63.700  20.932  51.047  0.00  0.00     0.218 HD
ENDBRANCH  30  43
ENDBRANCH  22  23
ENDBRANCH  19  22
ENDBRANCH  11  16
TORSDOF 7
ENDMDL
MODEL 3
REMARK VINA RESULT:      -7.3      7.464     15.948
REMARK  7 active torsions:
REMARK  status: ('A' for Active; 'I' for Inactive)
REMARK    1  A    between atoms: C1_1  and  O1_7 
REMARK    2  A    between atoms: C3_3  and  O10_40 
REMARK    3  A    between atoms: C9_12  and  C10_13 
REMARK    4  A    between atoms: C13_16  and  O4_19 
REMARK    5  A    between atoms: O4_19  and  C16_20 
REMARK    6  A    between atoms: C17_21  and  O7_29 
REMARK    7  A    between atoms: C18_22  and  O5_24 
ROOT
ATOM      1  C1  UNK A          65.879  32.599  54.927  0.00  0.00     0.088 A 
ATOM      2  C2  UNK A          65.914  33.964  54.595  0.00  0.00     0.067 A 
ATOM      3  C3  UNK A          65.163  34.464  53.523  0.00  0.00     0.076 A 
ATOM      4  C4  UNK A          64.371  33.598  52.758  0.00  0.00     0.068 A 
ATOM      5  C5  UNK A          64.377  32.227  53.049  0.00  0.00     0.098 A 
ATOM      6  C6  UNK A          65.103  31.705  54.146  0.00  0.00     0.083 A 
ATOM      7  C7  UNK A          65.178  30.245  54.353  0.00  0.00     0.193 C 
ATOM      8  O2  UNK A          65.646  29.647  55.317  0.00  0.00    -0.289 OA
ATOM      9  C8  UNK A          64.914  29.541  53.193  0.00  0.00     0.087 C 
ATOM     10  O3  UNK A          63.789  31.397  52.135  0.00  0.00    -0.309 OA
ATOM     11  C9  UNK A          64.301  30.137  52.109  0.00  0.00     0.093 C 
ENDROOT
BRANCH   1  12
ATOM     12  O1  UNK A          66.676  32.171  55.954  0.00  0.00    -0.360 OA
ATOM     13  H1  UNK A          66.469  31.234  56.150  0.00  0.00     0.218 HD
ENDBRANCH   1  12
BRANCH   3  14
ATOM     14  O10 UNK A          65.252  35.782  53.183  0.00  0.00    -0.361 OA
ATOM     15  H10 UNK A          65.837  36.235  53.822  0.00  0.00     0.218 HD
ENDBRANCH   3  14
BRANCH  11  16
ATOM     16  C10 UNK A          64.598  29.591  50.788  0.00  0.00     0.006 A 
ATOM     17  C11 UNK A          63.813  28.588  50.197  0.00  0.00     0.013 A 
ATOM     18  C12 UNK A          64.182  28.065  48.939  0.00  0.00     0.035 A 
ATOM     19  C13 UNK A          65.307  28.568  48.255  0.00  0.00     0.082 A 
ATOM     20  C14 UNK A          66.015  29.655  48.795  0.00  0.00     0.035 A 
ATOM     21  C15 UNK A          65.674  30.150  50.064  0.00  0.00     0.013 A 
BRANCH  19  22
ATOM     22  O4  UNK A          65.818  27.854  47.178  0.00  0.00    -0.305 OA
BRANCH  22  23
ATOM     23  C16 UNK A          65.783  26.475  47.285  0.00  0.00     0.143 C 
ATOM     24  C17 UNK A          66.769  25.779  48.032  0.00  0.00     0.119 C 
ATOM     25  C21 UNK A          66.799  24.361  47.993  0.00  0.00     0.086 C 
ATOM     26  C20 UNK A          65.936  23.712  47.103  0.00  0.00     0.099 C 
ATOM     27  C22 UNK A          67.572  23.509  48.928  0.00  0.00     0.193 C 
ATOM     28  C19 UNK A          64.912  24.374  46.437  0.00  0.00     0.071 C 
ATOM     29  O6  UNK A          65.981  22.365  47.014  0.00  0.00    -0.309 OA
ATOM     30  C18 UNK A          64.796  25.756  46.570  0.00  0.00     0.108 C 
ATOM     31  C24 UNK A          66.032  21.777  48.238  0.00  0.00     0.093 C 
ATOM     32  C25 UNK A          65.064  20.840  48.548  0.00  0.00     0.006 A 
ATOM     33  C23 UNK A          66.979  22.262  49.134  0.00  0.00     0.087 C 
ATOM     34  C26 UNK A          64.929  20.299  49.802  0.00  0.00     0.015 A 
ATOM     35  C30 UNK A          64.149  20.523  47.569  0.00  0.00     0.015 A 
ATOM     36  C27 UNK A          63.851  19.471  50.070  0.00  0.00     0.053 A 
ATOM     37  C28 UNK A          62.926  19.182  49.104  0.00  0.00     0.178 A 
ATOM     38  C29 UNK A          63.080  19.698  47.851  0.00  0.00     0.053 A 
ATOM     39  O9  UNK A          61.959  18.470  49.356  0.00  0.00    -0.290 OA
ATOM     40  O8  UNK A          68.456  23.891  49.688  0.00  0.00    -0.289 OA
BRANCH  24  41
ATOM     41  O7  UNK A          67.661  26.478  48.801  0.00  0.00    -0.357 OA
ATOM     42  H7  UNK A          67.912  25.929  49.571  0.00  0.00     0.218 HD
ENDBRANCH  24  41
BRANCH  30  43
ATOM     43  O5  UNK A          63.700  26.349  46.006  0.00  0.00    -0.358 OA
ATOM     44  H5  UNK A          63.889  27.297  45.877  0.00  0.00     0.218 HD
ENDBRANCH  30  43
ENDBRANCH  22  23
ENDBRANCH  19  22
ENDBRANCH  11  16
TORSDOF 7
ENDMDL
MODEL 4
REMARK VINA RESULT:      -7.2      6.762     15.383
REMARK  7 active torsions:
REMARK  status: ('A' for Active; 'I' for Inactive)
REMARK    1  A    between atoms: C1_1  and  O1_7 
REMARK    2  A    between atoms: C3_3  and  O10_40 
REMARK    3  A    between atoms: C9_12  and  C10_13 
REMARK    4  A    between atoms: C13_16  and  O4_19 
REMARK    5  A    between atoms: O4_19  and  C16_20 
REMARK    6  A    between atoms: C17_21  and  O7_29 
REMARK    7  A    between atoms: C18_22  and  O5_24 
ROOT
ATOM      1  C1  UNK A          65.336  32.203  54.213  0.00  0.00     0.088 A 
ATOM      2  C2  UNK A          65.335  33.525  53.738  0.00  0.00     0.067 A 
ATOM      3  C3  UNK A          64.743  33.849  52.509  0.00  0.00     0.076 A 
ATOM      4  C4  UNK A          64.151  32.845  51.732  0.00  0.00     0.068 A 
ATOM      5  C5  UNK A          64.200  31.516  52.174  0.00  0.00     0.098 A 
ATOM      6  C6  UNK A          64.765  31.172  53.426  0.00  0.00     0.083 A 
ATOM      7  C7  UNK A          64.901  29.752  53.807  0.00  0.00     0.193 C 
ATOM      8  O2  UNK A          65.239  29.296  54.895  0.00  0.00    -0.289 OA
ATOM      9  C8  UNK A          64.884  28.914  52.707  0.00  0.00     0.087 C 
ATOM     10  O3  UNK A          63.832  30.551  51.278  0.00  0.00    -0.309 OA
ATOM     11  C9  UNK A          64.424  29.343  51.478  0.00  0.00     0.093 C 
ENDROOT
BRANCH   1  12
ATOM     12  O1  UNK A          65.976  31.951  55.397  0.00  0.00    -0.360 OA
ATOM     13  H1  UNK A          66.129  30.986  55.477  0.00  0.00     0.218 HD
ENDBRANCH   1  12
BRANCH   3  14
ATOM     14  O10 UNK A          64.800  35.128  52.041  0.00  0.00    -0.361 OA
ATOM     15  H10 UNK A          64.550  35.741  52.760  0.00  0.00     0.218 HD
ENDBRANCH   3  14
BRANCH  11  16
ATOM     16  C10 UNK A          64.976  28.694  50.293  0.00  0.00     0.006 A 
ATOM     17  C11 UNK A          64.160  28.143  49.291  0.00  0.00     0.013 A 
ATOM     18  C12 UNK A          64.752  27.483  48.194  0.00  0.00     0.035 A 
ATOM     19  C13 UNK A          66.155  27.406  48.076  0.00  0.00     0.082 A 
ATOM     20  C14 UNK A          66.965  28.064  49.017  0.00  0.00     0.035 A 
ATOM     21  C15 UNK A          66.378  28.687  50.130  0.00  0.00     0.013 A 
BRANCH  19  22
ATOM     22  O4  UNK A          66.708  26.514  47.165  0.00  0.00    -0.305 OA
BRANCH  22  23
ATOM     23  C16 UNK A          66.365  25.184  47.323  0.00  0.00     0.143 C 
ATOM     24  C17 UNK A          65.387  24.581  46.490  0.00  0.00     0.119 C 
ATOM     25  C21 UNK A          64.944  23.265  46.778  0.00  0.00     0.086 C 
ATOM     26  C20 UNK A          65.392  22.666  47.961  0.00  0.00     0.099 C 
ATOM     27  C22 UNK A          64.156  22.418  45.848  0.00  0.00     0.193 C 
ATOM     28  C19 UNK A          66.412  23.208  48.732  0.00  0.00     0.071 C 
ATOM     29  O6  UNK A          64.946  21.432  48.279  0.00  0.00    -0.309 OA
ATOM     30  C18 UNK A          66.944  24.447  48.384  0.00  0.00     0.108 C 
ATOM     31  C24 UNK A          64.968  20.593  47.210  0.00  0.00     0.093 C 
ATOM     32  C25 UNK A          65.667  19.406  47.332  0.00  0.00     0.006 A 
ATOM     33  C23 UNK A          64.394  21.055  46.030  0.00  0.00     0.087 C 
ATOM     34  C26 UNK A          65.883  18.560  46.273  0.00  0.00     0.015 A 
ATOM     35  C30 UNK A          66.243  19.129  48.552  0.00  0.00     0.015 A 
ATOM     36  C27 UNK A          66.709  17.460  46.443  0.00  0.00     0.053 A 
ATOM     37  C28 UNK A          67.304  17.204  47.649  0.00  0.00     0.178 A 
ATOM     38  C29 UNK A          67.063  18.031  48.705  0.00  0.00     0.053 A 
ATOM     39  O9  UNK A          68.056  16.244  47.783  0.00  0.00    -0.290 OA
ATOM     40  O8  UNK A          63.586  22.802  44.832  0.00  0.00    -0.289 OA
BRANCH  24  41
ATOM     41  O7  UNK A          64.901  25.263  45.406  0.00  0.00    -0.357 OA
ATOM     42  H7  UNK A          65.232  26.183  45.437  0.00  0.00     0.218 HD
ENDBRANCH  24  41
BRANCH  30  43
ATOM     43  O5  UNK A          68.032  24.883  49.090  0.00  0.00    -0.358 OA
ATOM     44  H5  UNK A          68.779  24.280  48.918  0.00  0.00     0.218 HD
ENDBRANCH  30  43
ENDBRANCH  22  23
ENDBRANCH  19  22
ENDBRANCH  11  16
TORSDOF 7
ENDMDL
MODEL 5
REMARK VINA RESULT:      -7.2      8.865     14.488
REMARK  7 active torsions:
REMARK  status: ('A' for Active; 'I' for Inactive)
REMARK    1  A    between atoms: C1_1  and  O1_7 
REMARK    2  A    between atoms: C3_3  and  O10_40 
REMARK    3  A    between atoms: C9_12  and  C10_13 
REMARK    4  A    between atoms: C13_16  and  O4_19 
REMARK    5  A    between atoms: O4_19  and  C16_20 
REMARK    6  A    between atoms: C17_21  and  O7_29 
REMARK    7  A    between atoms: C18_22  and  O5_24 
ROOT
ATOM      1  C1  UNK A          60.229  21.679  53.980  0.00  0.00     0.088 A 
ATOM      2  C2  UNK A          59.293  22.422  53.244  0.00  0.00     0.067 A 
ATOM      3  C3  UNK A          57.924  22.351  53.538  0.00  0.00     0.076 A 
ATOM      4  C4  UNK A          57.473  21.521  54.573  0.00  0.00     0.068 A 
ATOM      5  C5  UNK A          58.397  20.734  55.272  0.00  0.00     0.098 A 
ATOM      6  C6  UNK A          59.786  20.814  55.012  0.00  0.00     0.083 A 
ATOM      7  C7  UNK A          60.717  19.889  55.688  0.00  0.00     0.193 C 
ATOM      8  O2  UNK A          61.944  19.916  55.676  0.00  0.00    -0.289 OA
ATOM      9  C8  UNK A          60.079  18.751  56.147  0.00  0.00     0.087 C 
ATOM     10  O3  UNK A          57.890  19.768  56.098  0.00  0.00    -0.309 OA
ATOM     11  C9  UNK A          58.705  18.694  56.274  0.00  0.00     0.093 C 
ENDROOT
BRANCH   1  12
ATOM     12  O1  UNK A          61.543  21.758  53.605  0.00  0.00    -0.360 OA
ATOM     13  H1  UNK A          61.680  22.581  53.090  0.00  0.00     0.218 HD
ENDBRANCH   1  12
BRANCH   3  14
ATOM     14  O10 UNK A          57.025  23.039  52.777  0.00  0.00    -0.361 OA
ATOM     15  H10 UNK A          57.057  22.698  51.863  0.00  0.00     0.218 HD
ENDBRANCH   3  14
BRANCH  11  16
ATOM     16  C10 UNK A          58.076  17.383  56.153  0.00  0.00     0.006 A 
ATOM     17  C11 UNK A          58.753  16.193  56.467  0.00  0.00     0.013 A 
ATOM     18  C12 UNK A          58.107  14.953  56.281  0.00  0.00     0.035 A 
ATOM     19  C13 UNK A          56.776  14.900  55.820  0.00  0.00     0.082 A 
ATOM     20  C14 UNK A          56.063  16.096  55.626  0.00  0.00     0.035 A 
ATOM     21  C15 UNK A          56.717  17.330  55.773  0.00  0.00     0.013 A 
BRANCH  19  22
ATOM     22  O4  UNK A          56.265  13.689  55.369  0.00  0.00    -0.305 OA
BRANCH  22  23
ATOM     23  C16 UNK A          54.922  13.674  55.041  0.00  0.00     0.143 C 
ATOM     24  C17 UNK A          53.932  13.493  56.041  0.00  0.00     0.119 C 
ATOM     25  C21 UNK A          52.576  13.324  55.657  0.00  0.00     0.086 C 
ATOM     26  C20 UNK A          52.293  13.204  54.292  0.00  0.00     0.099 C 
ATOM     27  C22 UNK A          51.420  13.411  56.583  0.00  0.00     0.193 C 
ATOM     28  C19 UNK A          53.236  13.468  53.307  0.00  0.00     0.071 C 
ATOM     29  O6  UNK A          51.016  12.995  53.905  0.00  0.00    -0.309 OA
ATOM     30  C18 UNK A          54.546  13.761  53.679  0.00  0.00     0.108 C 
ATOM     31  C24 UNK A          50.146  13.805  54.566  0.00  0.00     0.093 C 
ATOM     32  C25 UNK A          49.309  14.608  53.814  0.00  0.00     0.006 A 
ATOM     33  C23 UNK A          50.259  13.858  55.952  0.00  0.00     0.087 C 
ATOM     34  C26 UNK A          48.505  15.570  54.372  0.00  0.00     0.015 A 
ATOM     35  C30 UNK A          49.374  14.487  52.443  0.00  0.00     0.015 A 
ATOM     36  C27 UNK A          47.799  16.427  53.542  0.00  0.00     0.053 A 
ATOM     37  C28 UNK A          47.888  16.323  52.181  0.00  0.00     0.178 A 
ATOM     38  C29 UNK A          48.666  15.348  51.631  0.00  0.00     0.053 A 
ATOM     39  O9  UNK A          47.282  17.104  51.453  0.00  0.00    -0.290 OA
ATOM     40  O8  UNK A          51.477  13.399  57.808  0.00  0.00    -0.289 OA
BRANCH  24  41
ATOM     41  O7  UNK A          54.288  13.509  57.364  0.00  0.00    -0.357 OA
ATOM     42  H7  UNK A          53.493  13.695  57.903  0.00  0.00     0.218 HD
ENDBRANCH  24  41
BRANCH  30  43
ATOM     43  O5  UNK A          55.409  14.142  52.688  0.00  0.00    -0.358 OA
ATOM     44  H5  UNK A          55.487  13.415  52.044  0.00  0.00     0.218 HD
ENDBRANCH  30  43
ENDBRANCH  22  23
ENDBRANCH  19  22
ENDBRANCH  11  16
TORSDOF 7
ENDMDL
MODEL 6
REMARK VINA RESULT:      -7.0     15.137     19.120
REMARK  7 active torsions:
REMARK  status: ('A' for Active; 'I' for Inactive)
REMARK    1  A    between atoms: C1_1  and  O1_7 
REMARK    2  A    between atoms: C3_3  and  O10_40 
REMARK    3  A    between atoms: C9_12  and  C10_13 
REMARK    4  A    between atoms: C13_16  and  O4_19 
REMARK    5  A    between atoms: O4_19  and  C16_20 
REMARK    6  A    between atoms: C17_21  and  O7_29 
REMARK    7  A    between atoms: C18_22  and  O5_24 
ROOT
ATOM      1  C1  UNK A          54.094  10.709  53.703  0.00  0.00     0.088 A 
ATOM      2  C2  UNK A          55.187  11.423  53.186  0.00  0.00     0.067 A 
ATOM      3  C3  UNK A          55.200  12.825  53.190  0.00  0.00     0.076 A 
ATOM      4  C4  UNK A          54.106  13.533  53.705  0.00  0.00     0.068 A 
ATOM      5  C5  UNK A          52.989  12.827  54.169  0.00  0.00     0.098 A 
ATOM      6  C6  UNK A          52.968  11.412  54.203  0.00  0.00     0.083 A 
ATOM      7  C7  UNK A          51.733  10.702  54.591  0.00  0.00     0.193 C 
ATOM      8  O2  UNK A          51.591   9.501  54.798  0.00  0.00    -0.289 OA
ATOM      9  C8  UNK A          50.608  11.490  54.432  0.00  0.00     0.087 C 
ATOM     10  O3  UNK A          51.860  13.554  54.431  0.00  0.00    -0.309 OA
ATOM     11  C9  UNK A          50.699  12.860  54.290  0.00  0.00     0.093 C 
ENDROOT
BRANCH   1  12
ATOM     12  O1  UNK A          54.127   9.343  53.621  0.00  0.00    -0.360 OA
ATOM     13  H1  UNK A          53.342   9.035  53.120  0.00  0.00     0.218 HD
ENDBRANCH   1  12
BRANCH   3  14
ATOM     14  O10 UNK A          56.247  13.499  52.635  0.00  0.00    -0.361 OA
ATOM     15  H10 UNK A          56.728  12.899  52.033  0.00  0.00     0.218 HD
ENDBRANCH   3  14
BRANCH  11  16
ATOM     16  C10 UNK A          49.639  13.528  53.542  0.00  0.00     0.006 A 
ATOM     17  C11 UNK A          48.289  13.161  53.663  0.00  0.00     0.013 A 
ATOM     18  C12 UNK A          47.315  13.810  52.875  0.00  0.00     0.035 A 
ATOM     19  C13 UNK A          47.682  14.850  51.996  0.00  0.00     0.082 A 
ATOM     20  C14 UNK A          49.015  15.296  51.970  0.00  0.00     0.035 A 
ATOM     21  C15 UNK A          49.990  14.625  52.725  0.00  0.00     0.013 A 
BRANCH  19  22
ATOM     22  O4  UNK A          46.775  15.268  51.030  0.00  0.00    -0.305 OA
BRANCH  22  23
ATOM     23  C16 UNK A          45.551  15.717  51.491  0.00  0.00     0.143 C 
ATOM     24  C17 UNK A          45.467  16.844  52.349  0.00  0.00     0.119 C 
ATOM     25  C21 UNK A          44.219  17.184  52.930  0.00  0.00     0.086 C 
ATOM     26  C20 UNK A          43.147  16.305  52.742  0.00  0.00     0.099 C 
ATOM     27  C22 UNK A          43.925  18.475  53.601  0.00  0.00     0.193 C 
ATOM     28  C19 UNK A          43.194  15.252  51.837  0.00  0.00     0.071 C 
ATOM     29  O6  UNK A          41.962  16.584  53.326  0.00  0.00    -0.309 OA
ATOM     30  C18 UNK A          44.384  14.987  51.163  0.00  0.00     0.108 C 
ATOM     31  C24 UNK A          41.617  17.890  53.178  0.00  0.00     0.093 C 
ATOM     32  C25 UNK A          40.394  18.176  52.599  0.00  0.00     0.006 A 
ATOM     33  C23 UNK A          42.582  18.840  53.499  0.00  0.00     0.087 C 
ATOM     34  C26 UNK A          40.013  19.451  52.262  0.00  0.00     0.015 A 
ATOM     35  C30 UNK A          39.583  17.114  52.268  0.00  0.00     0.015 A 
ATOM     36  C27 UNK A          38.832  19.642  51.562  0.00  0.00     0.053 A 
ATOM     37  C28 UNK A          38.043  18.581  51.209  0.00  0.00     0.178 A 
ATOM     38  C29 UNK A          38.411  17.320  51.571  0.00  0.00     0.053 A 
ATOM     39  O9  UNK A          37.013  18.756  50.564  0.00  0.00    -0.290 OA
ATOM     40  O8  UNK A          44.753  19.308  53.954  0.00  0.00    -0.289 OA
BRANCH  24  41
ATOM     41  O7  UNK A          46.581  17.607  52.584  0.00  0.00    -0.357 OA
ATOM     42  H7  UNK A          47.361  17.150  52.211  0.00  0.00     0.218 HD
ENDBRANCH  24  41
BRANCH  30  43
ATOM     43  O5  UNK A          44.351  14.028  50.187  0.00  0.00    -0.358 OA
ATOM     44  H5  UNK A          44.187  14.460  49.329  0.00  0.00     0.218 HD
ENDBRANCH  30  43
ENDBRANCH  22  23
ENDBRANCH  19  22
ENDBRANCH  11  16
TORSDOF 7
ENDMDL
MODEL 7
REMARK VINA RESULT:      -6.9      7.543     10.177
REMARK  7 active torsions:
REMARK  status: ('A' for Active; 'I' for Inactive)
REMARK    1  A    between atoms: C1_1  and  O1_7 
REMARK    2  A    between atoms: C3_3  and  O10_40 
REMARK    3  A    between atoms: C9_12  and  C10_13 
REMARK    4  A    between atoms: C13_16  and  O4_19 
REMARK    5  A    between atoms: O4_19  and  C16_20 
REMARK    6  A    between atoms: C17_21  and  O7_29 
REMARK    7  A    between atoms: C18_22  and  O5_24 
ROOT
ATOM      1  C1  UNK A          66.035   1.413  47.478  0.00  0.00     0.088 A 
ATOM      2  C2  UNK A          66.947   1.714  46.453  0.00  0.00     0.067 A 
ATOM      3  C3  UNK A          67.682   2.908  46.469  0.00  0.00     0.076 A 
ATOM      4  C4  UNK A          67.504   3.825  47.513  0.00  0.00     0.068 A 
ATOM      5  C5  UNK A          66.554   3.556  48.508  0.00  0.00     0.098 A 
ATOM      6  C6  UNK A          65.824   2.343  48.527  0.00  0.00     0.083 A 
ATOM      7  C7  UNK A          64.752   2.143  49.523  0.00  0.00     0.193 C 
ATOM      8  O2  UNK A          64.127   1.114  49.757  0.00  0.00    -0.289 OA
ATOM      9  C8  UNK A          64.279   3.342  50.025  0.00  0.00     0.087 C 
ATOM     10  O3  UNK A          66.243   4.579  49.361  0.00  0.00    -0.309 OA
ATOM     11  C9  UNK A          64.986   4.518  49.876  0.00  0.00     0.093 C 
ENDROOT
BRANCH   1  12
ATOM     12  O1  UNK A          65.315   0.254  47.371  0.00  0.00    -0.360 OA
ATOM     13  H1  UNK A          65.382  -0.243  48.213  0.00  0.00     0.218 HD
ENDBRANCH   1  12
BRANCH   3  14
ATOM     14  O10 UNK A          68.522   3.206  45.437  0.00  0.00    -0.361 OA
ATOM     15  H10 UNK A          68.071   3.823  44.829  0.00  0.00     0.218 HD
ENDBRANCH   3  14
BRANCH  11  16
ATOM     16  C10 UNK A          64.221   5.761  49.849  0.00  0.00     0.006 A 
ATOM     17  C11 UNK A          62.945   5.869  50.426  0.00  0.00     0.013 A 
ATOM     18  C12 UNK A          62.233   7.083  50.323  0.00  0.00     0.035 A 
ATOM     19  C13 UNK A          62.807   8.198  49.679  0.00  0.00     0.082 A 
ATOM     20  C14 UNK A          64.131   8.121  49.212  0.00  0.00     0.035 A 
ATOM     21  C15 UNK A          64.825   6.903  49.280  0.00  0.00     0.013 A 
BRANCH  19  22
ATOM     22  O4  UNK A          61.994   9.270  49.333  0.00  0.00    -0.305 OA
BRANCH  22  23
ATOM     23  C16 UNK A          61.068   9.668  50.278  0.00  0.00     0.143 C 
ATOM     24  C17 UNK A          61.443  10.520  51.350  0.00  0.00     0.119 C 
ATOM     25  C21 UNK A          60.513  10.782  52.389  0.00  0.00     0.086 C 
ATOM     26  C20 UNK A          59.306  10.073  52.383  0.00  0.00     0.099 C 
ATOM     27  C22 UNK A          60.660  11.857  53.401  0.00  0.00     0.193 C 
ATOM     28  C19 UNK A          58.894   9.308  51.298  0.00  0.00     0.071 C 
ATOM     29  O6  UNK A          58.426  10.271  53.388  0.00  0.00    -0.309 OA
ATOM     30  C18 UNK A          59.753   9.148  50.214  0.00  0.00     0.108 C 
ATOM     31  C24 UNK A          58.273  11.590  53.676  0.00  0.00     0.093 C 
ATOM     32  C25 UNK A          56.995  12.117  53.638  0.00  0.00     0.006 A 
ATOM     33  C23 UNK A          59.432  12.338  53.856  0.00  0.00     0.087 C 
ATOM     34  C26 UNK A          56.742  13.461  53.761  0.00  0.00     0.015 A 
ATOM     35  C30 UNK A          55.958  11.252  53.371  0.00  0.00     0.015 A 
ATOM     36  C27 UNK A          55.450  13.926  53.575  0.00  0.00     0.053 A 
ATOM     37  C28 UNK A          54.427  13.067  53.280  0.00  0.00     0.178 A 
ATOM     38  C29 UNK A          54.677  11.730  53.188  0.00  0.00     0.053 A 
ATOM     39  O9  UNK A          53.291  13.490  53.089  0.00  0.00    -0.290 OA
ATOM     40  O8  UNK A          61.682  12.495  53.630  0.00  0.00    -0.289 OA
BRANCH  24  41
ATOM     41  O7  UNK A          62.683  11.100  51.357  0.00  0.00    -0.357 OA
ATOM     42  H7  UNK A          63.156  10.846  50.539  0.00  0.00     0.218 HD
ENDBRANCH  24  41
BRANCH  30  43
ATOM     43  O5  UNK A          59.259   8.499  49.115  0.00  0.00    -0.358 OA
ATOM     44  H5  UNK A          59.701   7.634  49.038  0.00  0.00     0.218 HD
ENDBRANCH  30  43
ENDBRANCH  22  23
ENDBRANCH  19  22
ENDBRANCH  11  16
TORSDOF 7
ENDMDL
MODEL 8
REMARK VINA RESULT:      -6.9      8.426     13.574
REMARK  7 active torsions:
REMARK  status: ('A' for Active; 'I' for Inactive)
REMARK    1  A    between atoms: C1_1  and  O1_7 
REMARK    2  A    between atoms: C3_3  and  O10_40 
REMARK    3  A    between atoms: C9_12  and  C10_13 
REMARK    4  A    between atoms: C13_16  and  O4_19 
REMARK    5  A    between atoms: O4_19  and  C16_20 
REMARK    6  A    between atoms: C17_21  and  O7_29 
REMARK    7  A    between atoms: C18_22  and  O5_24 
ROOT
ATOM      1  C1  UNK A          63.252  21.097  47.482  0.00  0.00     0.088 A 
ATOM      2  C2  UNK A          62.514  21.480  46.350  0.00  0.00     0.067 A 
ATOM      3  C3  UNK A          63.031  22.404  45.431  0.00  0.00     0.076 A 
ATOM      4  C4  UNK A          64.296  22.967  45.642  0.00  0.00     0.068 A 
ATOM      5  C5  UNK A          65.012  22.633  46.799  0.00  0.00     0.098 A 
ATOM      6  C6  UNK A          64.523  21.679  47.723  0.00  0.00     0.083 A 
ATOM      7  C7  UNK A          65.249  21.436  48.986  0.00  0.00     0.193 C 
ATOM      8  O2  UNK A          65.035  20.560  49.818  0.00  0.00    -0.289 OA
ATOM      9  C8  UNK A          66.069  22.496  49.326  0.00  0.00     0.087 C 
ATOM     10  O3  UNK A          66.119  23.384  47.082  0.00  0.00    -0.309 OA
ATOM     11  C9  UNK A          66.422  23.462  48.405  0.00  0.00     0.093 C 
ENDROOT
BRANCH   1  12
ATOM     12  O1  UNK A          62.666  20.229  48.363  0.00  0.00    -0.360 OA
ATOM     13  H1  UNK A          63.090  19.350  48.277  0.00  0.00     0.218 HD
ENDBRANCH   1  12
BRANCH   3  14
ATOM     14  O10 UNK A          62.276  22.803  44.367  0.00  0.00    -0.361 OA
ATOM     15  H10 UNK A          62.754  22.590  43.542  0.00  0.00     0.218 HD
ENDBRANCH   3  14
BRANCH  11  16
ATOM     16  C10 UNK A          66.730  24.794  48.916  0.00  0.00     0.006 A 
ATOM     17  C11 UNK A          65.997  25.385  49.959  0.00  0.00     0.013 A 
ATOM     18  C12 UNK A          66.310  26.697  50.375  0.00  0.00     0.035 A 
ATOM     19  C13 UNK A          67.375  27.402  49.780  0.00  0.00     0.082 A 
ATOM     20  C14 UNK A          68.182  26.760  48.824  0.00  0.00     0.035 A 
ATOM     21  C15 UNK A          67.848  25.470  48.382  0.00  0.00     0.013 A 
BRANCH  19  22
ATOM     22  O4  UNK A          67.479  28.772  49.990  0.00  0.00    -0.305 OA
BRANCH  22  23
ATOM     23  C16 UNK A          67.581  29.560  48.858  0.00  0.00     0.143 C 
ATOM     24  C17 UNK A          68.822  30.139  48.485  0.00  0.00     0.119 C 
ATOM     25  C21 UNK A          68.862  31.067  47.413  0.00  0.00     0.086 C 
ATOM     26  C20 UNK A          67.646  31.480  46.857  0.00  0.00     0.099 C 
ATOM     27  C22 UNK A          70.103  31.523  46.740  0.00  0.00     0.193 C 
ATOM     28  C19 UNK A          66.440  30.857  47.153  0.00  0.00     0.071 C 
ATOM     29  O6  UNK A          67.657  32.399  45.868  0.00  0.00    -0.309 OA
ATOM     30  C18 UNK A          66.411  29.853  48.117  0.00  0.00     0.108 C 
ATOM     31  C24 UNK A          68.610  32.131  44.937  0.00  0.00     0.093 C 
ATOM     32  C25 UNK A          68.212  32.012  43.618  0.00  0.00     0.006 A 
ATOM     33  C23 UNK A          69.894  31.864  45.403  0.00  0.00     0.087 C 
ATOM     34  C26 UNK A          69.059  31.594  42.622  0.00  0.00     0.015 A 
ATOM     35  C30 UNK A          66.884  32.235  43.332  0.00  0.00     0.015 A 
ATOM     36  C27 UNK A          68.551  31.368  41.352  0.00  0.00     0.053 A 
ATOM     37  C28 UNK A          67.224  31.562  41.078  0.00  0.00     0.178 A 
ATOM     38  C29 UNK A          66.393  32.005  42.064  0.00  0.00     0.053 A 
ATOM     39  O9  UNK A          66.777  31.333  39.959  0.00  0.00    -0.290 OA
ATOM     40  O8  UNK A          71.247  31.361  47.151  0.00  0.00    -0.289 OA
BRANCH  24  41
ATOM     41  O7  UNK A          69.968  29.777  49.142  0.00  0.00    -0.357 OA
ATOM     42  H7  UNK A          69.726  29.272  49.945  0.00  0.00     0.218 HD
ENDBRANCH  24  41
BRANCH  30  43
ATOM     43  O5  UNK A          65.232  29.177  48.284  0.00  0.00    -0.358 OA
ATOM     44  H5  UNK A          65.157  28.502  47.585  0.00  0.00     0.218 HD
ENDBRANCH  30  43
ENDBRANCH  22  23
ENDBRANCH  19  22
ENDBRANCH  11  16
TORSDOF 7
ENDMDL
MODEL 9
REMARK VINA RESULT:      -6.9      2.153      3.064
REMARK  7 active torsions:
REMARK  status: ('A' for Active; 'I' for Inactive)
REMARK    1  A    between atoms: C1_1  and  O1_7 
REMARK    2  A    between atoms: C3_3  and  O10_40 
REMARK    3  A    between atoms: C9_12  and  C10_13 
REMARK    4  A    between atoms: C13_16  and  O4_19 
REMARK    5  A    between atoms: O4_19  and  C16_20 
REMARK    6  A    between atoms: C17_21  and  O7_29 
REMARK    7  A    between atoms: C18_22  and  O5_24 
ROOT
ATOM      1  C1  UNK A          65.878   6.362  48.796  0.00  0.00     0.088 A 
ATOM      2  C2  UNK A          64.773   6.004  49.586  0.00  0.00     0.067 A 
ATOM      3  C3  UNK A          63.707   6.894  49.778  0.00  0.00     0.076 A 
ATOM      4  C4  UNK A          63.740   8.164  49.188  0.00  0.00     0.068 A 
ATOM      5  C5  UNK A          64.866   8.547  48.447  0.00  0.00     0.098 A 
ATOM      6  C6  UNK A          65.939   7.653  48.215  0.00  0.00     0.083 A 
ATOM      7  C7  UNK A          67.157   8.127  47.528  0.00  0.00     0.193 C 
ATOM      8  O2  UNK A          68.107   7.457  47.135  0.00  0.00    -0.289 OA
ATOM      9  C8  UNK A          67.294   9.501  47.601  0.00  0.00     0.087 C 
ATOM     10  O3  UNK A          64.961   9.867  48.100  0.00  0.00    -0.309 OA
ATOM     11  C9  UNK A          66.235  10.317  47.945  0.00  0.00     0.093 C 
ENDROOT
BRANCH   1  12
ATOM     12  O1  UNK A          66.906   5.464  48.693  0.00  0.00    -0.360 OA
ATOM     13  H1  UNK A          67.035   5.025  49.560  0.00  0.00     0.218 HD
ENDBRANCH   1  12
BRANCH   3  14
ATOM     14  O10 UNK A          62.668   6.548  50.591  0.00  0.00    -0.361 OA
ATOM     15  H10 UNK A          61.912   7.140  50.410  0.00  0.00     0.218 HD
ENDBRANCH   3  14
BRANCH  11  16
ATOM     16  C10 UNK A          66.549  11.589  48.587  0.00  0.00     0.006 A 
ATOM     17  C11 UNK A          65.584  12.341  49.276  0.00  0.00     0.013 A 
ATOM     18  C12 UNK A          65.937  13.588  49.833  0.00  0.00     0.035 A 
ATOM     19  C13 UNK A          67.260  14.067  49.736  0.00  0.00     0.082 A 
ATOM     20  C14 UNK A          68.249  13.255  49.154  0.00  0.00     0.035 A 
ATOM     21  C15 UNK A          67.890  12.032  48.565  0.00  0.00     0.013 A 
BRANCH  19  22
ATOM     22  O4  UNK A          67.517  15.402  50.023  0.00  0.00    -0.305 OA
BRANCH  22  23
ATOM     23  C16 UNK A          66.785  16.334  49.311  0.00  0.00     0.143 C 
ATOM     24  C17 UNK A          65.651  16.963  49.889  0.00  0.00     0.119 C 
ATOM     25  C21 UNK A          64.831  17.793  49.083  0.00  0.00     0.086 C 
ATOM     26  C20 UNK A          65.098  17.846  47.711  0.00  0.00     0.099 C 
ATOM     27  C22 UNK A          63.801  18.725  49.608  0.00  0.00     0.193 C 
ATOM     28  C19 UNK A          66.252  17.309  47.153  0.00  0.00     0.071 C 
ATOM     29  O6  UNK A          64.301  18.592  46.917  0.00  0.00    -0.309 OA
ATOM     30  C18 UNK A          67.132  16.596  47.964  0.00  0.00     0.108 C 
ATOM     31  C24 UNK A          64.040  19.811  47.460  0.00  0.00     0.093 C 
ATOM     32  C25 UNK A          64.343  20.933  46.711  0.00  0.00     0.006 A 
ATOM     33  C23 UNK A          63.612  19.835  48.784  0.00  0.00     0.087 C 
ATOM     34  C26 UNK A          64.265  22.206  47.217  0.00  0.00     0.015 A 
ATOM     35  C30 UNK A          64.831  20.735  45.438  0.00  0.00     0.015 A 
ATOM     36  C27 UNK A          64.716  23.268  46.449  0.00  0.00     0.053 A 
ATOM     37  C28 UNK A          65.229  23.065  45.196  0.00  0.00     0.178 A 
ATOM     38  C29 UNK A          65.276  21.802  44.687  0.00  0.00     0.053 A 
ATOM     39  O9  UNK A          65.652  24.008  44.534  0.00  0.00    -0.290 OA
ATOM     40  O8  UNK A          63.356  18.736  50.750  0.00  0.00    -0.289 OA
BRANCH  24  41
ATOM     41  O7  UNK A          65.377  16.785  51.219  0.00  0.00    -0.357 OA
ATOM     42  H7  UNK A          64.731  16.055  51.313  0.00  0.00     0.218 HD
ENDBRANCH  24  41
BRANCH  30  43
ATOM     43  O5  UNK A          68.316  16.198  47.406  0.00  0.00    -0.358 OA
ATOM     44  H5  UNK A          68.189  15.325  46.993  0.00  0.00     0.218 HD
ENDBRANCH  30  43
ENDBRANCH  22  23
ENDBRANCH  19  22
ENDBRANCH  11  16
TORSDOF 7
ENDMDL
