REMARK  5 active torsions:
REMARK  status: ('A' for Active; 'I' for Inactive)
REMARK    1  A    between atoms: C5_6  and  N2_7 
REMARK    2  A    between atoms: N2_7  and  C6_8 
REMARK    3  A    between atoms: C6_8  and  C7_9 
REMARK    4  A    between atoms: C6_8  and  C8_10 
REMARK    5  A    between atoms: C14_17  and  O1_27 
ROOT
ATOM      1  N1  UNK A           2.392  -0.718   2.390  0.00  0.00    -0.242 NA
ATOM      2  C1  UNK A           2.886  -0.076   3.481  0.00  0.00     0.113 A 
ATOM      3  C2  UNK A           2.310  -0.306   4.745  0.00  0.00     0.020 A 
ATOM      4  C3  UNK A           1.237  -1.211   4.848  0.00  0.00     0.005 A 
ATOM      5  C4  UNK A           0.761  -1.869   3.697  0.00  0.00     0.044 A 
ATOM      6  C5  UNK A           1.361  -1.606   2.447  0.00  0.00     0.118 A 
ENDROOT
BRANCH   6   7
ATOM      7  N2  UNK A           0.884  -2.221   1.325  0.00  0.00    -0.318 N 
ATOM      8  HN2 UNK A           0.514  -3.156   1.421  0.00  0.00     0.149 HD
BRANCH   7   9
ATOM      9  C6  UNK A           0.874  -1.625   0.017  0.00  0.00     0.135 C 
BRANCH   9  10
ATOM     10  C7  UNK A          -0.109  -0.485  -0.039  0.00  0.00     0.011 A 
ATOM     11  C14 UNK A           0.155   0.703  -0.768  0.00  0.00     0.103 A 
ATOM     12  C15 UNK A          -0.716   1.812  -0.661  0.00  0.00     0.102 A 
ATOM     13  C16 UNK A          -1.917   1.728   0.101  0.00  0.00     0.021 A 
ATOM     14  N3  UNK A          -0.397   2.983  -1.278  0.00  0.00    -0.253 NA
ATOM     15  C17 UNK A          -2.230   0.514   0.756  0.00  0.00     0.051 A 
ATOM     16  C21 UNK A          -2.740   2.878   0.173  0.00  0.00     0.013 A 
ATOM     17  C18 UNK A          -1.325  -0.561   0.687  0.00  0.00     0.030 A 
ATOM     18 Cl2  UNK A          -3.649   0.274   1.661  0.00  0.00    -0.084 Cl
ATOM     19  C20 UNK A          -2.368   4.068  -0.478  0.00  0.00     0.021 A 
ATOM     20  C19 UNK A          -1.166   4.097  -1.203  0.00  0.00     0.112 A 
BRANCH  11  21
ATOM     21  O1  UNK A           1.248   0.814  -1.573  0.00  0.00    -0.358 OA
ATOM     22  HO1 UNK A           2.045   0.753  -1.041  0.00  0.00     0.218 HD
ENDBRANCH  11  21
ENDBRANCH   9  10
BRANCH   9  23
ATOM     23  C8  UNK A           0.673  -2.682  -1.028  0.00  0.00    -0.022 A 
ATOM     24  C9  UNK A           1.798  -3.316  -1.619  0.00  0.00     0.026 A 
ATOM     25  C10 UNK A           1.647  -4.310  -2.606  0.00  0.00     0.041 A 
ATOM     26  C11 UNK A           0.357  -4.688  -3.022  0.00  0.00     0.020 A 
ATOM     27 Cl1  UNK A           3.004  -5.057  -3.293  0.00  0.00    -0.084 Cl
ATOM     28  C12 UNK A          -0.771  -4.082  -2.445  0.00  0.00     0.002 A 
ATOM     29  C13 UNK A          -0.614  -3.098  -1.452  0.00  0.00     0.006 A 
ENDBRANCH   9  23
ENDBRANCH   7   9
ENDBRANCH   6   7
TORSDOF 5
