REMARK  5 active torsions:
REMARK  status: ('A' for Active; 'I' for Inactive)
REMARK    1  A    between atoms: C5_5  and  C7_9 
REMARK    2  A    between atoms: C7_9  and  C8_10 
REMARK    3  A    between atoms: C7_9  and  N1_16 
REMARK    4  A    between atoms: C9_11  and  O1_17 
REMARK    5  A    between atoms: N1_16  and  C17_22 
ROOT
ATOM      1  C1  UNK A          -8.635  -0.430  -1.585  0.00  0.00     0.059 A 
ATOM      2  C2  UNK A          -8.898   0.947  -1.511  0.00  0.00     0.022 A 
ATOM      3  C3  UNK A          -7.841   1.853  -1.357  0.00  0.00     0.002 A 
ATOM      4  C4  UNK A          -6.521   1.383  -1.268  0.00  0.00     0.008 A 
ATOM      5  C5  UNK A          -6.236  -0.001  -1.327  0.00  0.00    -0.003 A 
ATOM      6  C6  UNK A          -7.310  -0.907  -1.497  0.00  0.00     0.065 A 
ATOM      7 Cl1  UNK A          -9.988  -1.528  -1.790  0.00  0.00    -0.083 Cl
ATOM      8 Cl2  UNK A          -7.022  -2.637  -1.613  0.00  0.00    -0.082 Cl
ENDROOT
BRANCH   5   9
ATOM      9  C7  UNK A          -4.786  -0.498  -1.228  0.00  0.00     0.137 C 
BRANCH   9  10
ATOM     10  C8  UNK A          -4.163  -0.670  -2.624  0.00  0.00     0.009 A 
ATOM     11  C9  UNK A          -3.640  -1.914  -3.059  0.00  0.00     0.103 A 
ATOM     12  C10 UNK A          -3.038  -2.044  -4.333  0.00  0.00     0.101 A 
ATOM     13  C11 UNK A          -2.987  -0.910  -5.177  0.00  0.00     0.003 A 
ATOM     14  N2  UNK A          -2.517  -3.228  -4.736  0.00  0.00    -0.254 NA
ATOM     15  C12 UNK A          -3.512   0.320  -4.755  0.00  0.00     0.011 A 
ATOM     16  C16 UNK A          -2.401  -1.021  -6.451  0.00  0.00     0.012 A 
ATOM     17  C13 UNK A          -4.088   0.442  -3.485  0.00  0.00     0.009 A 
ATOM     18  C15 UNK A          -1.872  -2.257  -6.844  0.00  0.00     0.021 A 
ATOM     19  C14 UNK A          -1.949  -3.334  -5.951  0.00  0.00     0.112 A 
BRANCH  11  20
ATOM     20  O1  UNK A          -3.697  -3.011  -2.239  0.00  0.00    -0.358 OA
ATOM     21  H1  UNK A          -4.092  -2.748  -1.393  0.00  0.00     0.218 HD
ENDBRANCH  11  20
ENDBRANCH   9  10
BRANCH   9  22
ATOM     22  N1  UNK A          -3.981   0.380  -0.346  0.00  0.00    -0.318 N 
ATOM     23  HN1 UNK A          -4.495   1.057   0.202  0.00  0.00     0.149 HD
BRANCH  22  24
ATOM     24  C17 UNK A          -2.649   0.183   0.020  0.00  0.00     0.118 A 
ATOM     25  C18 UNK A          -2.078   0.979   1.031  0.00  0.00     0.044 A 
ATOM     26  C19 UNK A          -0.723   0.806   1.359  0.00  0.00     0.008 A 
ATOM     27  C20 UNK A           0.024  -0.160   0.659  0.00  0.00    -0.033 A 
ATOM     28  C21 UNK A          -0.632  -0.920  -0.326  0.00  0.00     0.116 A 
ATOM     29  C22 UNK A           1.502  -0.373   0.942  0.00  0.00     0.046 C 
ATOM     30  N3  UNK A          -1.932  -0.755  -0.634  0.00  0.00    -0.241 NA
ENDBRANCH  22  24
ENDBRANCH   9  22
ENDBRANCH   5   9
TORSDOF 5
