MODEL 1
REMARK VINA RESULT:      -6.9      0.000      0.000
REMARK  5 active torsions:
REMARK  status: ('A' for Active; 'I' for Inactive)
REMARK    1  A    between atoms: C5_6  and  N2_7 
REMARK    2  A    between atoms: N2_7  and  C6_8 
REMARK    3  A    between atoms: C6_8  and  C7_9 
REMARK    4  A    between atoms: C6_8  and  C8_10 
REMARK    5  A    between atoms: C14_17  and  O1_27 
ROOT
ATOM      1  N1  UNK A          46.379  19.667  57.301  0.00  0.00    -0.242 NA
ATOM      2  C1  UNK A          47.056  20.068  58.409  0.00  0.00     0.113 A 
ATOM      3  C2  UNK A          48.011  21.097  58.307  0.00  0.00     0.020 A 
ATOM      4  C3  UNK A          48.234  21.696  57.053  0.00  0.00     0.005 A 
ATOM      5  C4  UNK A          47.503  21.263  55.929  0.00  0.00     0.044 A 
ATOM      6  C5  UNK A          46.559  20.224  56.071  0.00  0.00     0.118 A 
ENDROOT
BRANCH   6   7
ATOM      7  N2  UNK A          45.869  19.783  54.978  0.00  0.00    -0.318 N 
ATOM      8  HN2 UNK A          45.767  20.416  54.198  0.00  0.00     0.149 HD
BRANCH   7   9
ATOM      9  C6  UNK A          45.278  18.477  54.866  0.00  0.00     0.135 C 
BRANCH   9  10
ATOM     10  C7  UNK A          46.236  17.516  54.213  0.00  0.00     0.011 A 
ATOM     11  C14 UNK A          47.117  16.699  54.967  0.00  0.00     0.103 A 
ATOM     12  C15 UNK A          48.113  15.935  54.316  0.00  0.00     0.102 A 
ATOM     13  C16 UNK A          48.191  15.896  52.894  0.00  0.00     0.021 A 
ATOM     14  N3  UNK A          49.021  15.240  55.054  0.00  0.00    -0.253 NA
ATOM     15  C17 UNK A          47.256  16.637  52.135  0.00  0.00     0.051 A 
ATOM     16  C21 UNK A          49.217  15.116  52.306  0.00  0.00     0.013 A 
ATOM     17  C18 UNK A          46.308  17.438  52.798  0.00  0.00     0.030 A 
ATOM     18 Cl2  UNK A          47.219  16.642  50.435  0.00  0.00    -0.084 Cl
ATOM     19  C20 UNK A          50.136  14.418  53.109  0.00  0.00     0.021 A 
ATOM     20  C19 UNK A          50.019  14.504  54.506  0.00  0.00     0.112 A 
BRANCH  11  21
ATOM     21  O1  UNK A          47.040  16.638  56.326  0.00  0.00    -0.358 OA
ATOM     22  HO1 UNK A          46.837  15.738  56.594  0.00  0.00     0.218 HD
ENDBRANCH  11  21
ENDBRANCH   9  10
BRANCH   9  23
ATOM     23  C8  UNK A          43.936  18.576  54.205  0.00  0.00    -0.022 A 
ATOM     24  C9  UNK A          42.763  18.686  54.998  0.00  0.00     0.026 A 
ATOM     25  C10 UNK A          41.485  18.777  54.412  0.00  0.00     0.041 A 
ATOM     26  C11 UNK A          41.359  18.757  53.010  0.00  0.00     0.020 A 
ATOM     27 Cl1  UNK A          40.100  18.913  55.378  0.00  0.00    -0.084 Cl
ATOM     28  C12 UNK A          42.505  18.658  52.205  0.00  0.00     0.002 A 
ATOM     29  C13 UNK A          43.779  18.579  52.796  0.00  0.00     0.006 A 
ENDBRANCH   9  23
ENDBRANCH   7   9
ENDBRANCH   6   7
TORSDOF 5
ENDMDL
MODEL 2
REMARK VINA RESULT:      -6.8     25.469     27.363
REMARK  5 active torsions:
REMARK  status: ('A' for Active; 'I' for Inactive)
REMARK    1  A    between atoms: C5_6  and  N2_7 
REMARK    2  A    between atoms: N2_7  and  C6_8 
REMARK    3  A    between atoms: C6_8  and  C7_9 
REMARK    4  A    between atoms: C6_8  and  C8_10 
REMARK    5  A    between atoms: C14_17  and  O1_27 
ROOT
ATOM      1  N1  UNK A          59.449  24.678  32.240  0.00  0.00    -0.242 NA
ATOM      2  C1  UNK A          59.993  23.477  31.910  0.00  0.00     0.113 A 
ATOM      3  C2  UNK A          59.256  22.297  32.124  0.00  0.00     0.020 A 
ATOM      4  C3  UNK A          57.961  22.393  32.667  0.00  0.00     0.005 A 
ATOM      5  C4  UNK A          57.425  23.657  32.983  0.00  0.00     0.044 A 
ATOM      6  C5  UNK A          58.198  24.816  32.760  0.00  0.00     0.118 A 
ENDROOT
BRANCH   6   7
ATOM      7  N2  UNK A          57.692  26.041  33.090  0.00  0.00    -0.318 N 
ATOM      8  HN2 UNK A          57.614  26.269  34.071  0.00  0.00     0.149 HD
BRANCH   7   9
ATOM      9  C6  UNK A          57.264  27.026  32.135  0.00  0.00     0.135 C 
BRANCH   9  10
ATOM     10  C7  UNK A          57.978  28.332  32.364  0.00  0.00     0.011 A 
ATOM     11  C14 UNK A          59.340  28.518  32.017  0.00  0.00     0.103 A 
ATOM     12  C15 UNK A          60.017  29.700  32.398  0.00  0.00     0.102 A 
ATOM     13  C16 UNK A          59.325  30.761  33.051  0.00  0.00     0.021 A 
ATOM     14  N3  UNK A          61.351  29.823  32.156  0.00  0.00    -0.253 NA
ATOM     15  C17 UNK A          57.944  30.616  33.318  0.00  0.00     0.051 A 
ATOM     16  C21 UNK A          60.064  31.913  33.413  0.00  0.00     0.013 A 
ATOM     17  C18 UNK A          57.298  29.412  32.984  0.00  0.00     0.030 A 
ATOM     18 Cl2  UNK A          56.998  31.823  34.054  0.00  0.00    -0.084 Cl
ATOM     19  C20 UNK A          61.443  31.994  33.146  0.00  0.00     0.021 A 
ATOM     20  C19 UNK A          62.075  30.912  32.512  0.00  0.00     0.112 A 
BRANCH  11  21
ATOM     21  O1  UNK A          60.033  27.571  31.325  0.00  0.00    -0.358 OA
ATOM     22  HO1 UNK A          59.794  26.699  31.650  0.00  0.00     0.218 HD
ENDBRANCH  11  21
ENDBRANCH   9  10
BRANCH   9  23
ATOM     23  C8  UNK A          55.767  27.118  32.127  0.00  0.00    -0.022 A 
ATOM     24  C9  UNK A          55.091  27.553  30.956  0.00  0.00     0.026 A 
ATOM     25  C10 UNK A          53.687  27.656  30.914  0.00  0.00     0.041 A 
ATOM     26  C11 UNK A          52.930  27.323  32.052  0.00  0.00     0.020 A 
ATOM     27 Cl1  UNK A          52.901  28.172  29.504  0.00  0.00    -0.084 Cl
ATOM     28  C12 UNK A          53.575  26.880  33.219  0.00  0.00     0.002 A 
ATOM     29  C13 UNK A          54.977  26.770  33.251  0.00  0.00     0.006 A 
ENDBRANCH   9  23
ENDBRANCH   7   9
ENDBRANCH   6   7
TORSDOF 5
ENDMDL
MODEL 3
REMARK VINA RESULT:      -6.7      2.196      5.988
REMARK  5 active torsions:
REMARK  status: ('A' for Active; 'I' for Inactive)
REMARK    1  A    between atoms: C5_6  and  N2_7 
REMARK    2  A    between atoms: N2_7  and  C6_8 
REMARK    3  A    between atoms: C6_8  and  C7_9 
REMARK    4  A    between atoms: C6_8  and  C8_10 
REMARK    5  A    between atoms: C14_17  and  O1_27 
ROOT
ATOM      1  N1  UNK A          46.837  19.031  57.523  0.00  0.00    -0.242 NA
ATOM      2  C1  UNK A          46.737  20.026  58.442  0.00  0.00     0.113 A 
ATOM      3  C2  UNK A          46.913  21.365  58.041  0.00  0.00     0.020 A 
ATOM      4  C3  UNK A          47.178  21.639  56.686  0.00  0.00     0.005 A 
ATOM      5  C4  UNK A          47.260  20.581  55.759  0.00  0.00     0.044 A 
ATOM      6  C5  UNK A          47.085  19.253  56.202  0.00  0.00     0.118 A 
ENDROOT
BRANCH   6   7
ATOM      7  N2  UNK A          47.191  18.224  55.311  0.00  0.00    -0.318 N 
ATOM      8  HN2 UNK A          47.821  17.467  55.538  0.00  0.00     0.149 HD
BRANCH   7   9
ATOM      9  C6  UNK A          46.466  18.146  54.072  0.00  0.00     0.135 C 
BRANCH   9  10
ATOM     10  C7  UNK A          45.013  17.841  54.326  0.00  0.00     0.011 A 
ATOM     11  C14 UNK A          43.970  18.532  53.657  0.00  0.00     0.103 A 
ATOM     12  C15 UNK A          42.624  18.333  54.042  0.00  0.00     0.102 A 
ATOM     13  C16 UNK A          42.282  17.374  55.039  0.00  0.00     0.021 A 
ATOM     14  N3  UNK A          41.640  19.080  53.469  0.00  0.00    -0.253 NA
ATOM     15  C17 UNK A          43.312  16.617  55.644  0.00  0.00     0.051 A 
ATOM     16  C21 UNK A          40.916  17.231  55.383  0.00  0.00     0.013 A 
ATOM     17  C18 UNK A          44.651  16.867  55.291  0.00  0.00     0.030 A 
ATOM     18 Cl2  UNK A          43.032  15.416  56.814  0.00  0.00    -0.084 Cl
ATOM     19  C20 UNK A          39.934  18.027  54.766  0.00  0.00     0.021 A 
ATOM     20  C19 UNK A          40.331  18.967  53.801  0.00  0.00     0.112 A 
BRANCH  11  21
ATOM     21  O1  UNK A          44.231  19.405  52.645  0.00  0.00    -0.358 OA
ATOM     22  HO1 UNK A          44.879  20.050  52.938  0.00  0.00     0.218 HD
ENDBRANCH  11  21
ENDBRANCH   9  10
BRANCH   9  23
ATOM     23  C8  UNK A          47.154  17.201  53.133  0.00  0.00    -0.022 A 
ATOM     24  C9  UNK A          48.060  16.233  53.640  0.00  0.00     0.026 A 
ATOM     25  C10 UNK A          48.726  15.331  52.787  0.00  0.00     0.041 A 
ATOM     26  C11 UNK A          48.495  15.385  51.400  0.00  0.00     0.020 A 
ATOM     27 Cl1  UNK A          49.799  14.180  53.416  0.00  0.00    -0.084 Cl
ATOM     28  C12 UNK A          47.596  16.328  50.875  0.00  0.00     0.002 A 
ATOM     29  C13 UNK A          46.925  17.218  51.734  0.00  0.00     0.006 A 
ENDBRANCH   9  23
ENDBRANCH   7   9
ENDBRANCH   6   7
TORSDOF 5
ENDMDL
MODEL 4
REMARK VINA RESULT:      -6.7      2.590      6.456
REMARK  5 active torsions:
REMARK  status: ('A' for Active; 'I' for Inactive)
REMARK    1  A    between atoms: C5_6  and  N2_7 
REMARK    2  A    between atoms: N2_7  and  C6_8 
REMARK    3  A    between atoms: C6_8  and  C7_9 
REMARK    4  A    between atoms: C6_8  and  C8_10 
REMARK    5  A    between atoms: C14_17  and  O1_27 
ROOT
ATOM      1  N1  UNK A          42.285  18.691  54.772  0.00  0.00    -0.242 NA
ATOM      2  C1  UNK A          40.934  18.550  54.790  0.00  0.00     0.113 A 
ATOM      3  C2  UNK A          40.226  18.475  53.575  0.00  0.00     0.020 A 
ATOM      4  C3  UNK A          40.943  18.537  52.366  0.00  0.00     0.005 A 
ATOM      5  C4  UNK A          42.345  18.669  52.387  0.00  0.00     0.044 A 
ATOM      6  C5  UNK A          43.018  18.748  53.626  0.00  0.00     0.118 A 
ENDROOT
BRANCH   6   7
ATOM      7  N2  UNK A          44.374  18.904  53.650  0.00  0.00    -0.318 N 
ATOM      8  HN2 UNK A          44.771  19.662  53.113  0.00  0.00     0.149 HD
BRANCH   7   9
ATOM      9  C6  UNK A          45.273  18.062  54.390  0.00  0.00     0.135 C 
BRANCH   9  10
ATOM     10  C7  UNK A          45.832  18.797  55.580  0.00  0.00     0.011 A 
ATOM     11  C14 UNK A          45.447  18.484  56.909  0.00  0.00     0.103 A 
ATOM     12  C15 UNK A          45.865  19.303  57.983  0.00  0.00     0.102 A 
ATOM     13  C16 UNK A          46.751  20.398  57.766  0.00  0.00     0.021 A 
ATOM     14  N3  UNK A          45.403  19.057  59.240  0.00  0.00    -0.253 NA
ATOM     15  C17 UNK A          47.210  20.659  56.454  0.00  0.00     0.051 A 
ATOM     16  C21 UNK A          47.124  21.183  58.884  0.00  0.00     0.013 A 
ATOM     17  C18 UNK A          46.739  19.870  55.388  0.00  0.00     0.030 A 
ATOM     18 Cl2  UNK A          48.298  21.908  56.071  0.00  0.00    -0.084 Cl
ATOM     19  C20 UNK A          46.618  20.893  60.164  0.00  0.00     0.021 A 
ATOM     20  C19 UNK A          45.737  19.810  60.316  0.00  0.00     0.112 A 
BRANCH  11  21
ATOM     21  O1  UNK A          44.664  17.405  57.185  0.00  0.00    -0.358 OA
ATOM     22  HO1 UNK A          45.049  16.906  57.910  0.00  0.00     0.218 HD
ENDBRANCH  11  21
ENDBRANCH   9  10
BRANCH   9  23
ATOM     23  C8  UNK A          46.304  17.477  53.471  0.00  0.00    -0.022 A 
ATOM     24  C9  UNK A          47.287  16.590  53.983  0.00  0.00     0.026 A 
ATOM     25  C10 UNK A          48.273  16.025  53.149  0.00  0.00     0.041 A 
ATOM     26  C11 UNK A          48.291  16.342  51.778  0.00  0.00     0.020 A 
ATOM     27 Cl1  UNK A          49.433  14.964  53.781  0.00  0.00    -0.084 Cl
ATOM     28  C12 UNK A          47.322  17.209  51.247  0.00  0.00     0.002 A 
ATOM     29  C13 UNK A          46.334  17.761  52.082  0.00  0.00     0.006 A 
ENDBRANCH   9  23
ENDBRANCH   7   9
ENDBRANCH   6   7
TORSDOF 5
ENDMDL
MODEL 5
REMARK VINA RESULT:      -6.7      2.791      5.404
REMARK  5 active torsions:
REMARK  status: ('A' for Active; 'I' for Inactive)
REMARK    1  A    between atoms: C5_6  and  N2_7 
REMARK    2  A    between atoms: N2_7  and  C6_8 
REMARK    3  A    between atoms: C6_8  and  C7_9 
REMARK    4  A    between atoms: C6_8  and  C8_10 
REMARK    5  A    between atoms: C14_17  and  O1_27 
ROOT
ATOM      1  N1  UNK A          42.615  16.837  56.265  0.00  0.00    -0.242 NA
ATOM      2  C1  UNK A          41.427  16.417  55.759  0.00  0.00     0.113 A 
ATOM      3  C2  UNK A          40.797  17.166  54.746  0.00  0.00     0.020 A 
ATOM      4  C3  UNK A          41.426  18.333  54.273  0.00  0.00     0.005 A 
ATOM      5  C4  UNK A          42.665  18.729  54.812  0.00  0.00     0.044 A 
ATOM      6  C5  UNK A          43.261  17.955  55.831  0.00  0.00     0.118 A 
ENDROOT
BRANCH   6   7
ATOM      7  N2  UNK A          44.449  18.352  56.375  0.00  0.00    -0.318 N 
ATOM      8  HN2 UNK A          44.621  18.130  57.345  0.00  0.00     0.149 HD
BRANCH   7   9
ATOM      9  C6  UNK A          45.470  19.066  55.658  0.00  0.00     0.135 C 
BRANCH   9  10
ATOM     10  C7  UNK A          46.291  18.119  54.822  0.00  0.00     0.011 A 
ATOM     11  C14 UNK A          46.274  18.156  53.404  0.00  0.00     0.103 A 
ATOM     12  C15 UNK A          46.927  17.148  52.658  0.00  0.00     0.102 A 
ATOM     13  C16 UNK A          47.689  16.134  53.308  0.00  0.00     0.021 A 
ATOM     14  N3  UNK A          46.814  17.132  51.301  0.00  0.00    -0.253 NA
ATOM     15  C17 UNK A          47.783  16.146  54.719  0.00  0.00     0.051 A 
ATOM     16  C21 UNK A          48.310  15.150  52.501  0.00  0.00     0.013 A 
ATOM     17  C18 UNK A          47.081  17.122  55.450  0.00  0.00     0.030 A 
ATOM     18 Cl2  UNK A          48.692  15.018  55.609  0.00  0.00    -0.084 Cl
ATOM     19  C20 UNK A          48.163  15.171  51.103  0.00  0.00     0.021 A 
ATOM     20  C19 UNK A          47.389  16.186  50.518  0.00  0.00     0.112 A 
BRANCH  11  21
ATOM     21  O1  UNK A          45.626  19.145  52.728  0.00  0.00    -0.358 OA
ATOM     22  HO1 UNK A          44.697  19.141  52.967  0.00  0.00     0.218 HD
ENDBRANCH  11  21
ENDBRANCH   9  10
BRANCH   9  23
ATOM     23  C8  UNK A          46.261  19.920  56.603  0.00  0.00    -0.022 A 
ATOM     24  C9  UNK A          47.374  20.660  56.126  0.00  0.00     0.026 A 
ATOM     25  C10 UNK A          48.143  21.470  56.986  0.00  0.00     0.041 A 
ATOM     26  C11 UNK A          47.807  21.551  58.350  0.00  0.00     0.020 A 
ATOM     27 Cl1  UNK A          49.464  22.349  56.392  0.00  0.00    -0.084 Cl
ATOM     28  C12 UNK A          46.704  20.835  58.844  0.00  0.00     0.002 A 
ATOM     29  C13 UNK A          45.934  20.037  57.978  0.00  0.00     0.006 A 
ENDBRANCH   9  23
ENDBRANCH   7   9
ENDBRANCH   6   7
TORSDOF 5
ENDMDL
MODEL 6
REMARK VINA RESULT:      -6.6     20.715     23.037
REMARK  5 active torsions:
REMARK  status: ('A' for Active; 'I' for Inactive)
REMARK    1  A    between atoms: C5_6  and  N2_7 
REMARK    2  A    between atoms: N2_7  and  C6_8 
REMARK    3  A    between atoms: C6_8  and  C7_9 
REMARK    4  A    between atoms: C6_8  and  C8_10 
REMARK    5  A    between atoms: C14_17  and  O1_27 
ROOT
ATOM      1  N1  UNK A          65.821  27.074  51.204  0.00  0.00    -0.242 NA
ATOM      2  C1  UNK A          64.948  27.600  52.101  0.00  0.00     0.113 A 
ATOM      3  C2  UNK A          63.949  28.491  51.662  0.00  0.00     0.020 A 
ATOM      4  C3  UNK A          63.874  28.805  50.292  0.00  0.00     0.005 A 
ATOM      5  C4  UNK A          64.788  28.228  49.389  0.00  0.00     0.044 A 
ATOM      6  C5  UNK A          65.779  27.346  49.870  0.00  0.00     0.118 A 
ENDROOT
BRANCH   6   7
ATOM      7  N2  UNK A          66.684  26.806  49.001  0.00  0.00    -0.318 N 
ATOM      8  HN2 UNK A          67.582  26.527  49.369  0.00  0.00     0.149 HD
BRANCH   7   9
ATOM      9  C6  UNK A          66.442  26.611  47.598  0.00  0.00     0.135 C 
BRANCH   9  10
ATOM     10  C7  UNK A          66.053  25.183  47.320  0.00  0.00     0.011 A 
ATOM     11  C14 UNK A          64.923  24.849  46.530  0.00  0.00     0.103 A 
ATOM     12  C15 UNK A          64.496  23.504  46.430  0.00  0.00     0.102 A 
ATOM     13  C16 UNK A          65.240  22.454  47.040  0.00  0.00     0.021 A 
ATOM     14  N3  UNK A          63.349  23.208  45.759  0.00  0.00    -0.253 NA
ATOM     15  C17 UNK A          66.419  22.773  47.753  0.00  0.00     0.051 A 
ATOM     16  C21 UNK A          64.753  21.131  46.908  0.00  0.00     0.013 A 
ATOM     17  C18 UNK A          66.799  24.121  47.892  0.00  0.00     0.030 A 
ATOM     18 Cl2  UNK A          67.415  21.609  48.490  0.00  0.00    -0.084 Cl
ATOM     19  C20 UNK A          63.560  20.872  46.209  0.00  0.00     0.021 A 
ATOM     20  C19 UNK A          62.860  21.949  45.641  0.00  0.00     0.112 A 
BRANCH  11  21
ATOM     21  O1  UNK A          64.217  25.803  45.862  0.00  0.00    -0.358 OA
ATOM     22  HO1 UNK A          64.494  26.673  46.159  0.00  0.00     0.218 HD
ENDBRANCH  11  21
ENDBRANCH   9  10
BRANCH   9  23
ATOM     23  C8  UNK A          67.609  27.112  46.800  0.00  0.00    -0.022 A 
ATOM     24  C9  UNK A          68.405  28.176  47.302  0.00  0.00     0.026 A 
ATOM     25  C10 UNK A          69.506  28.675  46.578  0.00  0.00     0.041 A 
ATOM     26  C11 UNK A          69.831  28.113  45.330  0.00  0.00     0.020 A 
ATOM     27 Cl1  UNK A          70.444  29.942  47.199  0.00  0.00    -0.084 Cl
ATOM     28  C12 UNK A          69.066  27.053  44.818  0.00  0.00     0.002 A 
ATOM     29  C13 UNK A          67.974  26.552  45.550  0.00  0.00     0.006 A 
ENDBRANCH   9  23
ENDBRANCH   7   9
ENDBRANCH   6   7
TORSDOF 5
ENDMDL
MODEL 7
REMARK VINA RESULT:      -6.3     31.750     33.193
REMARK  5 active torsions:
REMARK  status: ('A' for Active; 'I' for Inactive)
REMARK    1  A    between atoms: C5_6  and  N2_7 
REMARK    2  A    between atoms: N2_7  and  C6_8 
REMARK    3  A    between atoms: C6_8  and  C7_9 
REMARK    4  A    between atoms: C6_8  and  C8_10 
REMARK    5  A    between atoms: C14_17  and  O1_27 
ROOT
ATOM      1  N1  UNK A          69.279   3.292  32.532  0.00  0.00    -0.242 NA
ATOM      2  C1  UNK A          70.361   4.083  32.755  0.00  0.00     0.113 A 
ATOM      3  C2  UNK A          70.177   5.440  33.084  0.00  0.00     0.020 A 
ATOM      4  C3  UNK A          68.866   5.942  33.187  0.00  0.00     0.005 A 
ATOM      5  C4  UNK A          67.768   5.088  32.963  0.00  0.00     0.044 A 
ATOM      6  C5  UNK A          67.995   3.736  32.628  0.00  0.00     0.118 A 
ENDROOT
BRANCH   6   7
ATOM      7  N2  UNK A          66.934   2.912  32.383  0.00  0.00    -0.318 N 
ATOM      8  HN2 UNK A          67.036   2.214  31.660  0.00  0.00     0.149 HD
BRANCH   7   9
ATOM      9  C6  UNK A          65.681   2.974  33.086  0.00  0.00     0.135 C 
BRANCH   9  10
ATOM     10  C7  UNK A          65.563   1.830  34.060  0.00  0.00     0.011 A 
ATOM     11  C14 UNK A          65.936   0.505  33.715  0.00  0.00     0.103 A 
ATOM     12  C15 UNK A          65.655  -0.565  34.596  0.00  0.00     0.102 A 
ATOM     13  C16 UNK A          65.081  -0.325  35.879  0.00  0.00     0.021 A 
ATOM     14  N3  UNK A          65.918  -1.844  34.211  0.00  0.00    -0.253 NA
ATOM     15  C17 UNK A          64.792   1.005  36.263  0.00  0.00     0.051 A 
ATOM     16  C21 UNK A          64.819  -1.442  36.708  0.00  0.00     0.013 A 
ATOM     17  C18 UNK A          65.023   2.052  35.352  0.00  0.00     0.030 A 
ATOM     18 Cl2  UNK A          64.145   1.425  37.778  0.00  0.00    -0.084 Cl
ATOM     19  C20 UNK A          65.104  -2.747  36.266  0.00  0.00     0.021 A 
ATOM     20  C19 UNK A          65.655  -2.924  34.987  0.00  0.00     0.112 A 
BRANCH  11  21
ATOM     21  O1  UNK A          66.556   0.226  32.535  0.00  0.00    -0.358 OA
ATOM     22  HO1 UNK A          65.919  -0.141  31.918  0.00  0.00     0.218 HD
ENDBRANCH  11  21
ENDBRANCH   9  10
BRANCH   9  23
ATOM     23  C8  UNK A          64.549   3.090  32.110  0.00  0.00    -0.022 A 
ATOM     24  C9  UNK A          64.326   4.315  31.427  0.00  0.00     0.026 A 
ATOM     25  C10 UNK A          63.270   4.462  30.506  0.00  0.00     0.041 A 
ATOM     26  C11 UNK A          62.411   3.376  30.253  0.00  0.00     0.020 A 
ATOM     27 Cl1  UNK A          63.028   5.932  29.698  0.00  0.00    -0.084 Cl
ATOM     28  C12 UNK A          62.617   2.152  30.909  0.00  0.00     0.002 A 
ATOM     29  C13 UNK A          63.680   2.008  31.819  0.00  0.00     0.006 A 
ENDBRANCH   9  23
ENDBRANCH   7   9
ENDBRANCH   6   7
TORSDOF 5
ENDMDL
MODEL 8
REMARK VINA RESULT:      -6.3     32.076     33.302
REMARK  5 active torsions:
REMARK  status: ('A' for Active; 'I' for Inactive)
REMARK    1  A    between atoms: C5_6  and  N2_7 
REMARK    2  A    between atoms: N2_7  and  C6_8 
REMARK    3  A    between atoms: C6_8  and  C7_9 
REMARK    4  A    between atoms: C6_8  and  C8_10 
REMARK    5  A    between atoms: C14_17  and  O1_27 
ROOT
ATOM      1  N1  UNK A          67.143   0.658  34.672  0.00  0.00    -0.242 NA
ATOM      2  C1  UNK A          67.611  -0.505  35.196  0.00  0.00     0.113 A 
ATOM      3  C2  UNK A          66.718  -1.396  35.822  0.00  0.00     0.020 A 
ATOM      4  C3  UNK A          65.352  -1.062  35.877  0.00  0.00     0.005 A 
ATOM      5  C4  UNK A          64.901   0.146  35.310  0.00  0.00     0.044 A 
ATOM      6  C5  UNK A          65.829   1.015  34.698  0.00  0.00     0.118 A 
ENDROOT
BRANCH   6   7
ATOM      7  N2  UNK A          65.400   2.200  34.171  0.00  0.00    -0.318 N 
ATOM      8  HN2 UNK A          64.770   2.762  34.727  0.00  0.00     0.149 HD
BRANCH   7   9
ATOM      9  C6  UNK A          65.785   2.699  32.880  0.00  0.00     0.135 C 
BRANCH   9  10
ATOM     10  C7  UNK A          66.687   3.897  33.022  0.00  0.00     0.011 A 
ATOM     11  C14 UNK A          67.637   4.248  32.028  0.00  0.00     0.103 A 
ATOM     12  C15 UNK A          68.575   5.278  32.272  0.00  0.00     0.102 A 
ATOM     13  C16 UNK A          68.527   6.042  33.474  0.00  0.00     0.021 A 
ATOM     14  N3  UNK A          69.550   5.533  31.357  0.00  0.00    -0.253 NA
ATOM     15  C17 UNK A          67.523   5.755  34.428  0.00  0.00     0.051 A 
ATOM     16  C21 UNK A          69.501   7.052  33.658  0.00  0.00     0.013 A 
ATOM     17  C18 UNK A          66.633   4.690  34.196  0.00  0.00     0.030 A 
ATOM     18 Cl2  UNK A          67.334   6.619  35.880  0.00  0.00    -0.084 Cl
ATOM     19  C20 UNK A          70.493   7.278  32.687  0.00  0.00     0.021 A 
ATOM     20  C19 UNK A          70.500   6.485  31.528  0.00  0.00     0.112 A 
BRANCH  11  21
ATOM     21  O1  UNK A          67.681   3.603  30.829  0.00  0.00    -0.358 OA
ATOM     22  HO1 UNK A          68.489   3.087  30.773  0.00  0.00     0.218 HD
ENDBRANCH  11  21
ENDBRANCH   9  10
BRANCH   9  23
ATOM     23  C8  UNK A          64.569   2.924  32.031  0.00  0.00    -0.022 A 
ATOM     24  C9  UNK A          64.371   4.178  31.395  0.00  0.00     0.026 A 
ATOM     25  C10 UNK A          63.238   4.425  30.594  0.00  0.00     0.041 A 
ATOM     26  C11 UNK A          62.277   3.413  30.417  0.00  0.00     0.020 A 
ATOM     27 Cl1  UNK A          63.026   5.928  29.840  0.00  0.00    -0.084 Cl
ATOM     28  C12 UNK A          62.456   2.161  31.028  0.00  0.00     0.002 A 
ATOM     29  C13 UNK A          63.594   1.917  31.817  0.00  0.00     0.006 A 
ENDBRANCH   9  23
ENDBRANCH   7   9
ENDBRANCH   6   7
TORSDOF 5
ENDMDL
MODEL 9
REMARK VINA RESULT:      -6.2     30.730     33.069
REMARK  5 active torsions:
REMARK  status: ('A' for Active; 'I' for Inactive)
REMARK    1  A    between atoms: C5_6  and  N2_7 
REMARK    2  A    between atoms: N2_7  and  C6_8 
REMARK    3  A    between atoms: C6_8  and  C7_9 
REMARK    4  A    between atoms: C6_8  and  C8_10 
REMARK    5  A    between atoms: C14_17  and  O1_27 
ROOT
ATOM      1  N1  UNK A          66.545   2.197  36.737  0.00  0.00    -0.242 NA
ATOM      2  C1  UNK A          66.129   1.739  37.947  0.00  0.00     0.113 A 
ATOM      3  C2  UNK A          64.897   1.066  38.051  0.00  0.00     0.020 A 
ATOM      4  C3  UNK A          64.128   0.873  36.887  0.00  0.00     0.005 A 
ATOM      5  C4  UNK A          64.599   1.349  35.648  0.00  0.00     0.044 A 
ATOM      6  C5  UNK A          65.836   2.025  35.587  0.00  0.00     0.118 A 
ENDROOT
BRANCH   6   7
ATOM      7  N2  UNK A          66.283   2.512  34.392  0.00  0.00    -0.318 N 
ATOM      8  HN2 UNK A          66.936   1.947  33.867  0.00  0.00     0.149 HD
BRANCH   7   9
ATOM      9  C6  UNK A          65.884   3.775  33.833  0.00  0.00     0.135 C 
BRANCH   9  10
ATOM     10  C7  UNK A          65.484   3.613  32.390  0.00  0.00     0.011 A 
ATOM     11  C14 UNK A          66.041   2.605  31.561  0.00  0.00     0.103 A 
ATOM     12  C15 UNK A          65.764   2.590  30.174  0.00  0.00     0.102 A 
ATOM     13  C16 UNK A          64.853   3.523  29.600  0.00  0.00     0.021 A 
ATOM     14  N3  UNK A          66.388   1.686  29.371  0.00  0.00    -0.253 NA
ATOM     15  C17 UNK A          64.225   4.473  30.439  0.00  0.00     0.051 A 
ATOM     16  C21 UNK A          64.627   3.458  28.204  0.00  0.00     0.013 A 
ATOM     17  C18 UNK A          64.555   4.512  31.807  0.00  0.00     0.030 A 
ATOM     18 Cl2  UNK A          63.091   5.612  29.885  0.00  0.00    -0.084 Cl
ATOM     19  C20 UNK A          65.298   2.509  27.412  0.00  0.00     0.021 A 
ATOM     20  C19 UNK A          66.195   1.624  28.030  0.00  0.00     0.112 A 
BRANCH  11  21
ATOM     21  O1  UNK A          66.858   1.641  32.068  0.00  0.00    -0.358 OA
ATOM     22  HO1 UNK A          67.292   1.971  32.858  0.00  0.00     0.218 HD
ENDBRANCH  11  21
ENDBRANCH   9  10
BRANCH   9  23
ATOM     23  C8  UNK A          66.947   4.804  34.080  0.00  0.00    -0.022 A 
ATOM     24  C9  UNK A          67.025   5.451  35.342  0.00  0.00     0.026 A 
ATOM     25  C10 UNK A          68.007   6.426  35.608  0.00  0.00     0.041 A 
ATOM     26  C11 UNK A          68.933   6.773  34.607  0.00  0.00     0.020 A 
ATOM     27 Cl1  UNK A          68.084   7.181  37.123  0.00  0.00    -0.084 Cl
ATOM     28  C12 UNK A          68.882   6.139  33.355  0.00  0.00     0.002 A 
ATOM     29  C13 UNK A          67.906   5.159  33.099  0.00  0.00     0.006 A 
ENDBRANCH   9  23
ENDBRANCH   7   9
ENDBRANCH   6   7
TORSDOF 5
ENDMDL
