MODEL 1
REMARK VINA RESULT:      -6.3      0.000      0.000
REMARK  5 active torsions:
REMARK  status: ('A' for Active; 'I' for Inactive)
REMARK    1  A    between atoms: C5_5  and  C7_9 
REMARK    2  A    between atoms: C7_9  and  C8_10 
REMARK    3  A    between atoms: C7_9  and  N1_16 
REMARK    4  A    between atoms: C9_11  and  O1_17 
REMARK    5  A    between atoms: N1_16  and  C17_22 
ROOT
ATOM      1  C1  UNK A          46.536  20.525  58.552  0.00  0.00     0.059 A 
ATOM      2  C2  UNK A          45.828  19.947  59.618  0.00  0.00     0.022 A 
ATOM      3  C3  UNK A          44.786  19.048  59.358  0.00  0.00     0.002 A 
ATOM      4  C4  UNK A          44.445  18.733  58.033  0.00  0.00     0.008 A 
ATOM      5  C5  UNK A          45.137  19.314  56.946  0.00  0.00    -0.003 A 
ATOM      6  C6  UNK A          46.198  20.210  57.219  0.00  0.00     0.065 A 
ATOM      7 Cl1  UNK A          47.842  21.637  58.924  0.00  0.00    -0.083 Cl
ATOM      8 Cl2  UNK A          47.122  20.941  55.915  0.00  0.00    -0.082 Cl
ENDROOT
BRANCH   5   9
ATOM      9  C7  UNK A          44.751  18.958  55.502  0.00  0.00     0.137 C 
BRANCH   9  10
ATOM     10  C8  UNK A          45.820  18.066  54.847  0.00  0.00     0.009 A 
ATOM     11  C9  UNK A          46.054  18.087  53.449  0.00  0.00     0.103 A 
ATOM     12  C10 UNK A          47.016  17.233  52.860  0.00  0.00     0.101 A 
ATOM     13  C11 UNK A          47.760  16.371  53.698  0.00  0.00     0.003 A 
ATOM     14  N2  UNK A          47.219  17.238  51.520  0.00  0.00    -0.254 NA
ATOM     15  C12 UNK A          47.540  16.354  55.083  0.00  0.00     0.011 A 
ATOM     16  C16 UNK A          48.728  15.521  53.133  0.00  0.00     0.012 A 
ATOM     17  C13 UNK A          46.571  17.189  55.653  0.00  0.00     0.009 A 
ATOM     18  C15 UNK A          48.920  15.547  51.746  0.00  0.00     0.021 A 
ATOM     19  C14 UNK A          48.139  16.420  50.977  0.00  0.00     0.112 A 
BRANCH  11  20
ATOM     20  O1  UNK A          45.333  18.929  52.642  0.00  0.00    -0.358 OA
ATOM     21  H1  UNK A          44.388  18.758  52.777  0.00  0.00     0.218 HD
ENDBRANCH  11  20
ENDBRANCH   9  10
BRANCH   9  22
ATOM     22  N1  UNK A          43.395  18.362  55.445  0.00  0.00    -0.318 N 
ATOM     23  HN1 UNK A          43.119  17.801  56.240  0.00  0.00     0.149 HD
BRANCH  22  24
ATOM     24  C17 UNK A          42.373  18.721  54.566  0.00  0.00     0.118 A 
ATOM     25  C18 UNK A          41.146  19.186  55.075  0.00  0.00     0.044 A 
ATOM     26  C19 UNK A          40.106  19.500  54.184  0.00  0.00     0.008 A 
ATOM     27  C20 UNK A          40.326  19.333  52.804  0.00  0.00    -0.033 A 
ATOM     28  C21 UNK A          41.588  18.876  52.383  0.00  0.00     0.116 A 
ATOM     29  C22 UNK A          39.232  19.622  51.789  0.00  0.00     0.046 C 
ATOM     30  N3  UNK A          42.584  18.582  53.240  0.00  0.00    -0.241 NA
ENDBRANCH  22  24
ENDBRANCH   9  22
ENDBRANCH   5   9
TORSDOF 5
ENDMDL
MODEL 2
REMARK VINA RESULT:      -6.0     21.813     24.715
REMARK  5 active torsions:
REMARK  status: ('A' for Active; 'I' for Inactive)
REMARK    1  A    between atoms: C5_5  and  C7_9 
REMARK    2  A    between atoms: C7_9  and  C8_10 
REMARK    3  A    between atoms: C7_9  and  N1_16 
REMARK    4  A    between atoms: C9_11  and  O1_17 
REMARK    5  A    between atoms: N1_16  and  C17_22 
ROOT
ATOM      1  C1  UNK A          65.835  28.606  50.942  0.00  0.00     0.059 A 
ATOM      2  C2  UNK A          64.516  28.893  50.555  0.00  0.00     0.022 A 
ATOM      3  C3  UNK A          64.058  28.504  49.290  0.00  0.00     0.002 A 
ATOM      4  C4  UNK A          64.921  27.836  48.406  0.00  0.00     0.008 A 
ATOM      5  C5  UNK A          66.257  27.550  48.771  0.00  0.00    -0.003 A 
ATOM      6  C6  UNK A          66.705  27.934  50.057  0.00  0.00     0.065 A 
ATOM      7 Cl1  UNK A          66.363  29.101  52.540  0.00  0.00    -0.083 Cl
ATOM      8 Cl2  UNK A          68.343  27.577  50.587  0.00  0.00    -0.082 Cl
ENDROOT
BRANCH   5   9
ATOM      9  C7  UNK A          67.187  26.818  47.792  0.00  0.00     0.137 C 
BRANCH   9  10
ATOM     10  C8  UNK A          66.744  25.358  47.592  0.00  0.00     0.009 A 
ATOM     11  C9  UNK A          65.739  25.006  46.657  0.00  0.00     0.103 A 
ATOM     12  C10 UNK A          65.318  23.662  46.513  0.00  0.00     0.101 A 
ATOM     13  C11 UNK A          65.938  22.670  47.309  0.00  0.00     0.003 A 
ATOM     14  N2  UNK A          64.340  23.332  45.636  0.00  0.00    -0.254 NA
ATOM     15  C12 UNK A          66.939  23.013  48.228  0.00  0.00     0.011 A 
ATOM     16  C16 UNK A          65.541  21.327  47.174  0.00  0.00     0.012 A 
ATOM     17  C13 UNK A          67.334  24.348  48.376  0.00  0.00     0.009 A 
ATOM     18  C15 UNK A          64.529  21.012  46.258  0.00  0.00     0.021 A 
ATOM     19  C14 UNK A          63.954  22.049  45.511  0.00  0.00     0.112 A 
BRANCH  11  20
ATOM     20  O1  UNK A          65.146  25.971  45.885  0.00  0.00    -0.358 OA
ATOM     21  H1  UNK A          65.838  26.475  45.429  0.00  0.00     0.218 HD
ENDBRANCH  11  20
ENDBRANCH   9  10
BRANCH   9  22
ATOM     22  N1  UNK A          67.306  27.560  46.514  0.00  0.00    -0.318 N 
ATOM     23  HN1 UNK A          66.668  28.334  46.385  0.00  0.00     0.149 HD
BRANCH  22  24
ATOM     24  C17 UNK A          68.371  27.490  45.616  0.00  0.00     0.118 A 
ATOM     25  C18 UNK A          68.650  28.586  44.777  0.00  0.00     0.044 A 
ATOM     26  C19 UNK A          69.694  28.488  43.843  0.00  0.00     0.008 A 
ATOM     27  C20 UNK A          70.428  27.289  43.772  0.00  0.00    -0.033 A 
ATOM     28  C21 UNK A          70.088  26.250  44.658  0.00  0.00     0.116 A 
ATOM     29  C22 UNK A          71.547  27.106  42.760  0.00  0.00     0.046 C 
ATOM     30  N3  UNK A          69.091  26.350  45.556  0.00  0.00    -0.241 NA
ENDBRANCH  22  24
ENDBRANCH   9  22
ENDBRANCH   5   9
TORSDOF 5
ENDMDL
MODEL 3
REMARK VINA RESULT:      -5.9      2.976      5.651
REMARK  5 active torsions:
REMARK  status: ('A' for Active; 'I' for Inactive)
REMARK    1  A    between atoms: C5_5  and  C7_9 
REMARK    2  A    between atoms: C7_9  and  C8_10 
REMARK    3  A    between atoms: C7_9  and  N1_16 
REMARK    4  A    between atoms: C9_11  and  O1_17 
REMARK    5  A    between atoms: N1_16  and  C17_22 
ROOT
ATOM      1  C1  UNK A          41.975  16.289  57.185  0.00  0.00     0.059 A 
ATOM      2  C2  UNK A          40.961  17.117  56.678  0.00  0.00     0.022 A 
ATOM      3  C3  UNK A          41.293  18.334  56.069  0.00  0.00     0.002 A 
ATOM      4  C4  UNK A          42.637  18.728  55.974  0.00  0.00     0.008 A 
ATOM      5  C5  UNK A          43.672  17.914  56.491  0.00  0.00    -0.003 A 
ATOM      6  C6  UNK A          43.327  16.680  57.091  0.00  0.00     0.065 A 
ATOM      7 Cl1  UNK A          41.516  14.768  57.929  0.00  0.00    -0.083 Cl
ATOM      8 Cl2  UNK A          44.567  15.606  57.722  0.00  0.00    -0.082 Cl
ENDROOT
BRANCH   5   9
ATOM      9  C7  UNK A          45.137  18.361  56.378  0.00  0.00     0.137 C 
BRANCH   9  10
ATOM     10  C8  UNK A          45.713  18.029  54.991  0.00  0.00     0.009 A 
ATOM     11  C9  UNK A          46.757  17.085  54.824  0.00  0.00     0.103 A 
ATOM     12  C10 UNK A          47.299  16.819  53.544  0.00  0.00     0.101 A 
ATOM     13  C11 UNK A          46.761  17.499  52.426  0.00  0.00     0.003 A 
ATOM     14  N2  UNK A          48.313  15.934  53.390  0.00  0.00    -0.254 NA
ATOM     15  C12 UNK A          45.722  18.427  52.585  0.00  0.00     0.011 A 
ATOM     16  C16 UNK A          47.280  17.242  51.144  0.00  0.00     0.012 A 
ATOM     17  C13 UNK A          45.207  18.696  53.859  0.00  0.00     0.009 A 
ATOM     18  C15 UNK A          48.327  16.321  51.013  0.00  0.00     0.021 A 
ATOM     19  C14 UNK A          48.816  15.692  52.166  0.00  0.00     0.112 A 
BRANCH  11  20
ATOM     20  O1  UNK A          47.270  16.424  55.909  0.00  0.00    -0.358 OA
ATOM     21  H1  UNK A          47.269  17.026  56.670  0.00  0.00     0.218 HD
ENDBRANCH  11  20
ENDBRANCH   9  10
BRANCH   9  22
ATOM     22  N1  UNK A          45.286  19.793  56.732  0.00  0.00    -0.318 N 
ATOM     23  HN1 UNK A          44.433  20.295  56.937  0.00  0.00     0.149 HD
BRANCH  22  24
ATOM     24  C17 UNK A          46.473  20.435  57.088  0.00  0.00     0.118 A 
ATOM     25  C18 UNK A          47.181  21.178  56.124  0.00  0.00     0.044 A 
ATOM     26  C19 UNK A          48.399  21.781  56.480  0.00  0.00     0.008 A 
ATOM     27  C20 UNK A          48.876  21.618  57.794  0.00  0.00    -0.033 A 
ATOM     28  C21 UNK A          48.095  20.871  58.695  0.00  0.00     0.116 A 
ATOM     29  C22 UNK A          50.202  22.215  58.233  0.00  0.00     0.046 C 
ATOM     30  N3  UNK A          46.926  20.299  58.352  0.00  0.00    -0.241 NA
ENDBRANCH  22  24
ENDBRANCH   9  22
ENDBRANCH   5   9
TORSDOF 5
ENDMDL
MODEL 4
REMARK VINA RESULT:      -5.9     33.001     34.811
REMARK  5 active torsions:
REMARK  status: ('A' for Active; 'I' for Inactive)
REMARK    1  A    between atoms: C5_5  and  C7_9 
REMARK    2  A    between atoms: C7_9  and  C8_10 
REMARK    3  A    between atoms: C7_9  and  N1_16 
REMARK    4  A    between atoms: C9_11  and  O1_17 
REMARK    5  A    between atoms: N1_16  and  C17_22 
ROOT
ATOM      1  C1  UNK A          64.497   4.754  28.427  0.00  0.00     0.059 A 
ATOM      2  C2  UNK A          63.446   5.592  28.832  0.00  0.00     0.022 A 
ATOM      3  C3  UNK A          63.087   5.657  30.185  0.00  0.00     0.002 A 
ATOM      4  C4  UNK A          63.771   4.878  31.131  0.00  0.00     0.008 A 
ATOM      5  C5  UNK A          64.824   4.018  30.741  0.00  0.00    -0.003 A 
ATOM      6  C6  UNK A          65.189   3.970  29.375  0.00  0.00     0.065 A 
ATOM      7 Cl1  UNK A          64.922   4.713  26.725  0.00  0.00    -0.083 Cl
ATOM      8 Cl2  UNK A          66.511   2.949  28.828  0.00  0.00    -0.082 Cl
ENDROOT
BRANCH   5   9
ATOM      9  C7  UNK A          65.563   3.173  31.790  0.00  0.00     0.137 C 
BRANCH   9  10
ATOM     10  C8  UNK A          66.319   4.066  32.788  0.00  0.00     0.009 A 
ATOM     11  C9  UNK A          67.661   4.466  32.562  0.00  0.00     0.103 A 
ATOM     12  C10 UNK A          68.352   5.258  33.509  0.00  0.00     0.101 A 
ATOM     13  C11 UNK A          67.670   5.663  34.681  0.00  0.00     0.003 A 
ATOM     14  N2  UNK A          69.642   5.619  33.302  0.00  0.00    -0.254 NA
ATOM     15  C12 UNK A          66.341   5.278  34.904  0.00  0.00     0.011 A 
ATOM     16  C16 UNK A          68.337   6.459  35.630  0.00  0.00     0.012 A 
ATOM     17  C13 UNK A          65.672   4.478  33.969  0.00  0.00     0.009 A 
ATOM     18  C15 UNK A          69.670   6.819  35.390  0.00  0.00     0.021 A 
ATOM     19  C14 UNK A          70.284   6.373  34.213  0.00  0.00     0.112 A 
BRANCH  11  20
ATOM     20  O1  UNK A          68.315   4.075  31.423  0.00  0.00    -0.358 OA
ATOM     21  H1  UNK A          68.560   3.141  31.509  0.00  0.00     0.218 HD
ENDBRANCH  11  20
ENDBRANCH   9  10
BRANCH   9  22
ATOM     22  N1  UNK A          64.639   2.225  32.457  0.00  0.00    -0.318 N 
ATOM     23  HN1 UNK A          63.655   2.337  32.250  0.00  0.00     0.149 HD
BRANCH  22  24
ATOM     24  C17 UNK A          64.996   1.037  33.096  0.00  0.00     0.118 A 
ATOM     25  C18 UNK A          64.861   0.928  34.493  0.00  0.00     0.044 A 
ATOM     26  C19 UNK A          65.269  -0.254  35.133  0.00  0.00     0.008 A 
ATOM     27  C20 UNK A          65.806  -1.295  34.352  0.00  0.00    -0.033 A 
ATOM     28  C21 UNK A          65.891  -1.105  32.961  0.00  0.00     0.116 A 
ATOM     29  C22 UNK A          66.297  -2.586  34.987  0.00  0.00     0.046 C 
ATOM     30  N3  UNK A          65.494   0.028  32.351  0.00  0.00    -0.241 NA
ENDBRANCH  22  24
ENDBRANCH   9  22
ENDBRANCH   5   9
TORSDOF 5
ENDMDL
MODEL 5
REMARK VINA RESULT:      -5.7     25.130     27.522
REMARK  5 active torsions:
REMARK  status: ('A' for Active; 'I' for Inactive)
REMARK    1  A    between atoms: C5_5  and  C7_9 
REMARK    2  A    between atoms: C7_9  and  C8_10 
REMARK    3  A    between atoms: C7_9  and  N1_16 
REMARK    4  A    between atoms: C9_11  and  O1_17 
REMARK    5  A    between atoms: N1_16  and  C17_22 
ROOT
ATOM      1  C1  UNK A          52.425  26.360  30.790  0.00  0.00     0.059 A 
ATOM      2  C2  UNK A          51.667  26.330  31.971  0.00  0.00     0.022 A 
ATOM      3  C3  UNK A          52.256  26.695  33.189  0.00  0.00     0.002 A 
ATOM      4  C4  UNK A          53.605  27.081  33.229  0.00  0.00     0.008 A 
ATOM      5  C5  UNK A          54.389  27.105  32.052  0.00  0.00    -0.003 A 
ATOM      6  C6  UNK A          53.781  26.749  30.825  0.00  0.00     0.065 A 
ATOM      7 Cl1  UNK A          51.644  25.907  29.286  0.00  0.00    -0.083 Cl
ATOM      8 Cl2  UNK A          54.690  26.791  29.321  0.00  0.00    -0.082 Cl
ENDROOT
BRANCH   5   9
ATOM      9  C7  UNK A          55.864  27.531  32.113  0.00  0.00     0.137 C 
BRANCH   9  10
ATOM     10  C8  UNK A          55.995  29.039  32.388  0.00  0.00     0.009 A 
ATOM     11  C9  UNK A          57.204  29.609  32.859  0.00  0.00     0.103 A 
ATOM     12  C10 UNK A          57.294  30.993  33.141  0.00  0.00     0.101 A 
ATOM     13  C11 UNK A          56.157  31.804  32.921  0.00  0.00     0.003 A 
ATOM     14  N2  UNK A          58.444  31.530  33.614  0.00  0.00    -0.254 NA
ATOM     15  C12 UNK A          54.961  31.246  32.446  0.00  0.00     0.011 A 
ATOM     16  C16 UNK A          56.229  33.184  33.186  0.00  0.00     0.012 A 
ATOM     17  C13 UNK A          54.877  29.873  32.189  0.00  0.00     0.009 A 
ATOM     18  C15 UNK A          57.430  33.715  33.673  0.00  0.00     0.021 A 
ATOM     19  C14 UNK A          58.513  32.848  33.876  0.00  0.00     0.112 A 
BRANCH  11  20
ATOM     20  O1  UNK A          58.305  28.819  33.065  0.00  0.00    -0.358 OA
ATOM     21  H1  UNK A          58.767  28.701  32.220  0.00  0.00     0.218 HD
ENDBRANCH  11  20
ENDBRANCH   9  10
BRANCH   9  22
ATOM     22  N1  UNK A          56.617  26.704  33.087  0.00  0.00    -0.318 N 
ATOM     23  HN1 UNK A          56.448  26.899  34.065  0.00  0.00     0.149 HD
BRANCH  22  24
ATOM     24  C17 UNK A          57.298  25.519  32.809  0.00  0.00     0.118 A 
ATOM     25  C18 UNK A          56.601  24.296  32.811  0.00  0.00     0.044 A 
ATOM     26  C19 UNK A          57.305  23.103  32.578  0.00  0.00     0.008 A 
ATOM     27  C20 UNK A          58.693  23.170  32.352  0.00  0.00    -0.033 A 
ATOM     28  C21 UNK A          59.305  24.436  32.354  0.00  0.00     0.116 A 
ATOM     29  C22 UNK A          59.518  21.913  32.127  0.00  0.00     0.046 C 
ATOM     30  N3  UNK A          58.626  25.578  32.573  0.00  0.00    -0.241 NA
ENDBRANCH  22  24
ENDBRANCH   9  22
ENDBRANCH   5   9
TORSDOF 5
ENDMDL
MODEL 6
REMARK VINA RESULT:      -5.7     19.335     21.307
REMARK  5 active torsions:
REMARK  status: ('A' for Active; 'I' for Inactive)
REMARK    1  A    between atoms: C5_5  and  C7_9 
REMARK    2  A    between atoms: C7_9  and  C8_10 
REMARK    3  A    between atoms: C7_9  and  N1_16 
REMARK    4  A    between atoms: C9_11  and  O1_17 
REMARK    5  A    between atoms: N1_16  and  C17_22 
ROOT
ATOM      1  C1  UNK A          65.776  19.229  52.644  0.00  0.00     0.059 A 
ATOM      2  C2  UNK A          64.467  19.101  53.135  0.00  0.00     0.022 A 
ATOM      3  C3  UNK A          63.468  18.545  52.326  0.00  0.00     0.002 A 
ATOM      4  C4  UNK A          63.775  18.125  51.021  0.00  0.00     0.008 A 
ATOM      5  C5  UNK A          65.084  18.258  50.503  0.00  0.00    -0.003 A 
ATOM      6  C6  UNK A          66.089  18.807  51.334  0.00  0.00     0.065 A 
ATOM      7 Cl1  UNK A          66.998  19.919  53.697  0.00  0.00    -0.083 Cl
ATOM      8 Cl2  UNK A          67.744  18.968  50.764  0.00  0.00    -0.082 Cl
ENDROOT
BRANCH   5   9
ATOM      9  C7  UNK A          65.402  17.794  49.074  0.00  0.00     0.137 C 
BRANCH   9  10
ATOM     10  C8  UNK A          65.762  16.299  49.045  0.00  0.00     0.009 A 
ATOM     11  C9  UNK A          65.852  15.577  47.828  0.00  0.00     0.103 A 
ATOM     12  C10 UNK A          66.150  14.193  47.823  0.00  0.00     0.101 A 
ATOM     13  C11 UNK A          66.379  13.546  49.060  0.00  0.00     0.003 A 
ATOM     14  N2  UNK A          66.210  13.501  46.660  0.00  0.00    -0.254 NA
ATOM     15  C12 UNK A          66.301  14.258  50.265  0.00  0.00     0.011 A 
ATOM     16  C16 UNK A          66.685  12.173  49.076  0.00  0.00     0.012 A 
ATOM     17  C13 UNK A          65.987  15.622  50.259  0.00  0.00     0.009 A 
ATOM     18  C15 UNK A          66.744  11.481  47.859  0.00  0.00     0.021 A 
ATOM     19  C14 UNK A          66.495  12.186  46.674  0.00  0.00     0.112 A 
BRANCH  11  20
ATOM     20  O1  UNK A          65.634  16.211  46.632  0.00  0.00    -0.358 OA
ATOM     21  H1  UNK A          65.807  17.158  46.745  0.00  0.00     0.218 HD
ENDBRANCH  11  20
ENDBRANCH   9  10
BRANCH   9  22
ATOM     22  N1  UNK A          64.298  18.134  48.145  0.00  0.00    -0.318 N 
ATOM     23  HN1 UNK A          63.486  17.531  48.173  0.00  0.00     0.149 HD
BRANCH  22  24
ATOM     24  C17 UNK A          64.139  19.339  47.460  0.00  0.00     0.118 A 
ATOM     25  C18 UNK A          65.143  19.775  46.573  0.00  0.00     0.044 A 
ATOM     26  C19 UNK A          64.996  21.012  45.924  0.00  0.00     0.008 A 
ATOM     27  C20 UNK A          63.847  21.782  46.187  0.00  0.00    -0.033 A 
ATOM     28  C21 UNK A          62.890  21.262  47.076  0.00  0.00     0.116 A 
ATOM     29  C22 UNK A          63.645  23.144  45.544  0.00  0.00     0.046 C 
ATOM     30  N3  UNK A          63.031  20.073  47.692  0.00  0.00    -0.241 NA
ENDBRANCH  22  24
ENDBRANCH   9  22
ENDBRANCH   5   9
TORSDOF 5
ENDMDL
MODEL 7
REMARK VINA RESULT:      -5.6     25.006     27.226
REMARK  5 active torsions:
REMARK  status: ('A' for Active; 'I' for Inactive)
REMARK    1  A    between atoms: C5_5  and  C7_9 
REMARK    2  A    between atoms: C7_9  and  C8_10 
REMARK    3  A    between atoms: C7_9  and  N1_16 
REMARK    4  A    between atoms: C9_11  and  O1_17 
REMARK    5  A    between atoms: N1_16  and  C17_22 
ROOT
ATOM      1  C1  UNK A          56.788  31.215  32.360  0.00  0.00     0.059 A 
ATOM      2  C2  UNK A          55.735  31.870  31.703  0.00  0.00     0.022 A 
ATOM      3  C3  UNK A          54.638  31.136  31.237  0.00  0.00     0.002 A 
ATOM      4  C4  UNK A          54.596  29.744  31.419  0.00  0.00     0.008 A 
ATOM      5  C5  UNK A          55.653  29.063  32.066  0.00  0.00    -0.003 A 
ATOM      6  C6  UNK A          56.750  29.817  32.546  0.00  0.00     0.065 A 
ATOM      7 Cl1  UNK A          58.138  32.176  32.938  0.00  0.00    -0.083 Cl
ATOM      8 Cl2  UNK A          58.080  29.037  33.390  0.00  0.00    -0.082 Cl
ENDROOT
BRANCH   5   9
ATOM      9  C7  UNK A          55.591  27.540  32.257  0.00  0.00     0.137 C 
BRANCH   9  10
ATOM     10  C8  UNK A          54.146  27.026  32.142  0.00  0.00     0.009 A 
ATOM     11  C9  UNK A          53.608  26.583  30.907  0.00  0.00     0.103 A 
ATOM     12  C10 UNK A          52.265  26.147  30.813  0.00  0.00     0.101 A 
ATOM     13  C11 UNK A          51.472  26.141  31.984  0.00  0.00     0.003 A 
ATOM     14  N2  UNK A          51.747  25.748  29.626  0.00  0.00    -0.254 NA
ATOM     15  C12 UNK A          52.002  26.569  33.210  0.00  0.00     0.011 A 
ATOM     16  C16 UNK A          50.137  25.703  31.914  0.00  0.00     0.012 A 
ATOM     17  C13 UNK A          53.326  27.016  33.287  0.00  0.00     0.009 A 
ATOM     18  C15 UNK A          49.627  25.293  30.675  0.00  0.00     0.021 A 
ATOM     19  C14 UNK A          50.468  25.336  29.556  0.00  0.00     0.112 A 
BRANCH  11  20
ATOM     20  O1  UNK A          54.383  26.586  29.776  0.00  0.00    -0.358 OA
ATOM     21  H1  UNK A          53.802  26.571  29.000  0.00  0.00     0.218 HD
ENDBRANCH  11  20
ENDBRANCH   9  10
BRANCH   9  22
ATOM     22  N1  UNK A          56.520  26.849  31.332  0.00  0.00    -0.318 N 
ATOM     23  HN1 UNK A          56.894  27.405  30.574  0.00  0.00     0.149 HD
BRANCH  22  24
ATOM     24  C17 UNK A          57.147  25.623  31.556  0.00  0.00     0.118 A 
ATOM     25  C18 UNK A          56.944  24.948  32.775  0.00  0.00     0.044 A 
ATOM     26  C19 UNK A          57.618  23.739  33.011  0.00  0.00     0.008 A 
ATOM     27  C20 UNK A          58.482  23.241  32.018  0.00  0.00    -0.033 A 
ATOM     28  C21 UNK A          58.613  23.974  30.825  0.00  0.00     0.116 A 
ATOM     29  C22 UNK A          59.266  21.955  32.225  0.00  0.00     0.046 C 
ATOM     30  N3  UNK A          57.962  25.130  30.600  0.00  0.00    -0.241 NA
ENDBRANCH  22  24
ENDBRANCH   9  22
ENDBRANCH   5   9
TORSDOF 5
ENDMDL
MODEL 8
REMARK VINA RESULT:      -5.6     32.508     34.551
REMARK  5 active torsions:
REMARK  status: ('A' for Active; 'I' for Inactive)
REMARK    1  A    between atoms: C5_5  and  C7_9 
REMARK    2  A    between atoms: C7_9  and  C8_10 
REMARK    3  A    between atoms: C7_9  and  N1_16 
REMARK    4  A    between atoms: C9_11  and  O1_17 
REMARK    5  A    between atoms: N1_16  and  C17_22 
ROOT
ATOM      1  C1  UNK A          64.764   3.462  29.049  0.00  0.00     0.059 A 
ATOM      2  C2  UNK A          63.528   4.128  29.033  0.00  0.00     0.022 A 
ATOM      3  C3  UNK A          63.100   4.835  30.163  0.00  0.00     0.002 A 
ATOM      4  C4  UNK A          63.902   4.870  31.315  0.00  0.00     0.008 A 
ATOM      5  C5  UNK A          65.144   4.195  31.357  0.00  0.00    -0.003 A 
ATOM      6  C6  UNK A          65.574   3.495  30.204  0.00  0.00     0.065 A 
ATOM      7 Cl1  UNK A          65.266   2.598  27.607  0.00  0.00    -0.083 Cl
ATOM      8 Cl2  UNK A          67.123   2.664  30.178  0.00  0.00    -0.082 Cl
ENDROOT
BRANCH   5   9
ATOM      9  C7  UNK A          66.010   4.243  32.625  0.00  0.00     0.137 C 
BRANCH   9  10
ATOM     10  C8  UNK A          65.683   3.069  33.564  0.00  0.00     0.009 A 
ATOM     11  C9  UNK A          65.940   3.134  34.956  0.00  0.00     0.103 A 
ATOM     12  C10 UNK A          65.667   2.030  35.798  0.00  0.00     0.101 A 
ATOM     13  C11 UNK A          65.109   0.863  35.226  0.00  0.00     0.003 A 
ATOM     14  N2  UNK A          65.936   2.087  37.125  0.00  0.00    -0.254 NA
ATOM     15  C12 UNK A          64.844   0.798  33.850  0.00  0.00     0.011 A 
ATOM     16  C16 UNK A          64.822  -0.242  36.048  0.00  0.00     0.012 A 
ATOM     17  C13 UNK A          65.137   1.889  33.023  0.00  0.00     0.009 A 
ATOM     18  C15 UNK A          65.108  -0.156  37.416  0.00  0.00     0.021 A 
ATOM     19  C14 UNK A          65.669   1.028  37.911  0.00  0.00     0.112 A 
BRANCH  11  20
ATOM     20  O1  UNK A          66.475   4.270  35.507  0.00  0.00    -0.358 OA
ATOM     21  H1  UNK A          66.679   4.098  36.440  0.00  0.00     0.218 HD
ENDBRANCH  11  20
ENDBRANCH   9  10
BRANCH   9  22
ATOM     22  N1  UNK A          67.450   4.321  32.284  0.00  0.00    -0.318 N 
ATOM     23  HN1 UNK A          67.758   3.752  31.506  0.00  0.00     0.149 HD
BRANCH  22  24
ATOM     24  C17 UNK A          68.351   5.291  32.724  0.00  0.00     0.118 A 
ATOM     25  C18 UNK A          69.008   6.110  31.786  0.00  0.00     0.044 A 
ATOM     26  C19 UNK A          69.949   7.051  32.236  0.00  0.00     0.008 A 
ATOM     27  C20 UNK A          70.207   7.143  33.616  0.00  0.00    -0.033 A 
ATOM     28  C21 UNK A          69.494   6.295  34.482  0.00  0.00     0.116 A 
ATOM     29  C22 UNK A          71.238   8.117  34.164  0.00  0.00     0.046 C 
ATOM     30  N3  UNK A          68.589   5.397  34.049  0.00  0.00    -0.241 NA
ENDBRANCH  22  24
ENDBRANCH   9  22
ENDBRANCH   5   9
TORSDOF 5
ENDMDL
MODEL 9
REMARK VINA RESULT:      -5.5     21.933     23.768
REMARK  5 active torsions:
REMARK  status: ('A' for Active; 'I' for Inactive)
REMARK    1  A    between atoms: C5_5  and  C7_9 
REMARK    2  A    between atoms: C7_9  and  C8_10 
REMARK    3  A    between atoms: C7_9  and  N1_16 
REMARK    4  A    between atoms: C9_11  and  O1_17 
REMARK    5  A    between atoms: N1_16  and  C17_22 
ROOT
ATOM      1  C1  UNK A          69.804  27.292  47.570  0.00  0.00     0.059 A 
ATOM      2  C2  UNK A          70.682  26.208  47.724  0.00  0.00     0.022 A 
ATOM      3  C3  UNK A          70.175  24.933  48.008  0.00  0.00     0.002 A 
ATOM      4  C4  UNK A          68.791  24.743  48.148  0.00  0.00     0.008 A 
ATOM      5  C5  UNK A          67.891  25.825  48.011  0.00  0.00    -0.003 A 
ATOM      6  C6  UNK A          68.412  27.106  47.709  0.00  0.00     0.065 A 
ATOM      7 Cl1  UNK A          70.481  28.869  47.203  0.00  0.00    -0.083 Cl
ATOM      8 Cl2  UNK A          67.346  28.486  47.491  0.00  0.00    -0.082 Cl
ENDROOT
BRANCH   5   9
ATOM      9  C7  UNK A          66.379  25.599  48.167  0.00  0.00     0.137 C 
BRANCH   9  10
ATOM     10  C8  UNK A          65.955  24.251  47.561  0.00  0.00     0.009 A 
ATOM     11  C9  UNK A          65.933  23.061  48.331  0.00  0.00     0.103 A 
ATOM     12  C10 UNK A          65.574  21.823  47.746  0.00  0.00     0.101 A 
ATOM     13  C11 UNK A          65.216  21.799  46.378  0.00  0.00     0.003 A 
ATOM     14  N2  UNK A          65.578  20.683  48.479  0.00  0.00    -0.254 NA
ATOM     15  C12 UNK A          65.227  22.975  45.615  0.00  0.00     0.011 A 
ATOM     16  C16 UNK A          64.848  20.580  45.781  0.00  0.00     0.012 A 
ATOM     17  C13 UNK A          65.602  24.191  46.199  0.00  0.00     0.009 A 
ATOM     18  C15 UNK A          64.857  19.417  46.561  0.00  0.00     0.021 A 
ATOM     19  C14 UNK A          65.233  19.515  47.907  0.00  0.00     0.112 A 
BRANCH  11  20
ATOM     20  O1  UNK A          66.276  23.091  49.658  0.00  0.00    -0.358 OA
ATOM     21  H1  UNK A          67.236  23.210  49.729  0.00  0.00     0.218 HD
ENDBRANCH  11  20
ENDBRANCH   9  10
BRANCH   9  22
ATOM     22  N1  UNK A          65.963  25.747  49.582  0.00  0.00    -0.318 N 
ATOM     23  HN1 UNK A          66.256  25.015  50.214  0.00  0.00     0.149 HD
BRANCH  22  24
ATOM     24  C17 UNK A          65.468  26.908  50.179  0.00  0.00     0.118 A 
ATOM     25  C18 UNK A          64.454  27.645  49.538  0.00  0.00     0.044 A 
ATOM     26  C19 UNK A          63.997  28.837  50.123  0.00  0.00     0.008 A 
ATOM     27  C20 UNK A          64.574  29.260  51.335  0.00  0.00    -0.033 A 
ATOM     28  C21 UNK A          65.572  28.454  51.911  0.00  0.00     0.116 A 
ATOM     29  C22 UNK A          64.148  30.558  52.002  0.00  0.00     0.046 C 
ATOM     30  N3  UNK A          66.004  27.309  51.351  0.00  0.00    -0.241 NA
ENDBRANCH  22  24
ENDBRANCH   9  22
ENDBRANCH   5   9
TORSDOF 5
ENDMDL
