MODEL 1
REMARK VINA RESULT:      -7.4      0.000      0.000
REMARK  7 active torsions:
REMARK  status: ('A' for Active; 'I' for Inactive)
REMARK    1  A    between atoms: C1_1  and  O1_7 
REMARK    2  A    between atoms: C3_3  and  O10_40 
REMARK    3  A    between atoms: C9_12  and  C10_13 
REMARK    4  A    between atoms: C13_16  and  O4_19 
REMARK    5  A    between atoms: O4_19  and  C16_20 
REMARK    6  A    between atoms: C17_21  and  O7_29 
REMARK    7  A    between atoms: C18_22  and  O5_24 
ROOT
ATOM      1  C1  UNK A          60.661   8.813  52.098  0.00  0.00     0.088 A 
ATOM      2  C2  UNK A          59.742   8.628  51.052  0.00  0.00     0.067 A 
ATOM      3  C3  UNK A          60.154   8.682  49.713  0.00  0.00     0.076 A 
ATOM      4  C4  UNK A          61.497   8.934  49.403  0.00  0.00     0.068 A 
ATOM      5  C5  UNK A          62.406   9.176  50.441  0.00  0.00     0.098 A 
ATOM      6  C6  UNK A          62.018   9.096  51.800  0.00  0.00     0.083 A 
ATOM      7  C7  UNK A          62.974   9.469  52.862  0.00  0.00     0.193 C 
ATOM      8  O2  UNK A          62.841   9.328  54.074  0.00  0.00    -0.289 OA
ATOM      9  C8  UNK A          63.982  10.290  52.391  0.00  0.00     0.087 C 
ATOM     10  O3  UNK A          63.638   9.654  50.087  0.00  0.00    -0.309 OA
ATOM     11  C9  UNK A          64.241  10.414  51.040  0.00  0.00     0.093 C 
ENDROOT
BRANCH   1  12
ATOM     12  O1  UNK A          60.181   8.798  53.379  0.00  0.00    -0.360 OA
ATOM     13  H1  UNK A          60.930   8.905  54.002  0.00  0.00     0.218 HD
ENDBRANCH   1  12
BRANCH   3  14
ATOM     14  O10 UNK A          59.237   8.553  48.711  0.00  0.00    -0.361 OA
ATOM     15  H10 UNK A          58.854   7.655  48.746  0.00  0.00     0.218 HD
ENDBRANCH   3  14
BRANCH  11  16
ATOM     16  C10 UNK A          64.828  11.670  50.584  0.00  0.00     0.006 A 
ATOM     17  C11 UNK A          65.089  11.927  49.228  0.00  0.00     0.013 A 
ATOM     18  C12 UNK A          65.706  13.140  48.855  0.00  0.00     0.035 A 
ATOM     19  C13 UNK A          66.027  14.110  49.826  0.00  0.00     0.082 A 
ATOM     20  C14 UNK A          65.651  13.899  51.164  0.00  0.00     0.035 A 
ATOM     21  C15 UNK A          65.073  12.677  51.543  0.00  0.00     0.013 A 
BRANCH  19  22
ATOM     22  O4  UNK A          66.884  15.149  49.486  0.00  0.00    -0.305 OA
BRANCH  22  23
ATOM     23  C16 UNK A          66.289  16.351  49.151  0.00  0.00     0.143 C 
ATOM     24  C17 UNK A          66.041  17.340  50.139  0.00  0.00     0.119 C 
ATOM     25  C21 UNK A          65.289  18.493  49.796  0.00  0.00     0.086 C 
ATOM     26  C20 UNK A          64.702  18.539  48.527  0.00  0.00     0.099 C 
ATOM     27  C22 UNK A          65.199  19.718  50.628  0.00  0.00     0.193 C 
ATOM     28  C19 UNK A          65.009  17.624  47.528  0.00  0.00     0.071 C 
ATOM     29  O6  UNK A          63.941  19.605  48.197  0.00  0.00    -0.309 OA
ATOM     30  C18 UNK A          65.851  16.554  47.820  0.00  0.00     0.108 C 
ATOM     31  C24 UNK A          64.525  20.777  48.562  0.00  0.00     0.093 C 
ATOM     32  C25 UNK A          64.725  21.734  47.583  0.00  0.00     0.006 A 
ATOM     33  C23 UNK A          64.997  20.870  49.867  0.00  0.00     0.087 C 
ATOM     34  C26 UNK A          65.439  22.885  47.805  0.00  0.00     0.015 A 
ATOM     35  C30 UNK A          64.262  21.454  46.317  0.00  0.00     0.015 A 
ATOM     36  C27 UNK A          65.712  23.728  46.740  0.00  0.00     0.053 A 
ATOM     37  C28 UNK A          65.277  23.432  45.477  0.00  0.00     0.178 A 
ATOM     38  C29 UNK A          64.543  22.303  45.267  0.00  0.00     0.053 A 
ATOM     39  O9  UNK A          65.547  24.170  44.534  0.00  0.00    -0.290 OA
ATOM     40  O8  UNK A          65.548  19.821  51.800  0.00  0.00    -0.289 OA
BRANCH  24  41
ATOM     41  O7  UNK A          66.552  17.185  51.401  0.00  0.00    -0.357 OA
ATOM     42  H7  UNK A          65.851  16.832  51.984  0.00  0.00     0.218 HD
ENDBRANCH  24  41
BRANCH  30  43
ATOM     43  O5  UNK A          66.232  15.753  46.778  0.00  0.00    -0.358 OA
ATOM     44  H5  UNK A          66.446  16.317  46.013  0.00  0.00     0.218 HD
ENDBRANCH  30  43
ENDBRANCH  22  23
ENDBRANCH  19  22
ENDBRANCH  11  16
TORSDOF 7
ENDMDL
MODEL 2
REMARK VINA RESULT:      -7.2      5.461     10.254
REMARK  7 active torsions:
REMARK  status: ('A' for Active; 'I' for Inactive)
REMARK    1  A    between atoms: C1_1  and  O1_7 
REMARK    2  A    between atoms: C3_3  and  O10_40 
REMARK    3  A    between atoms: C9_12  and  C10_13 
REMARK    4  A    between atoms: C13_16  and  O4_19 
REMARK    5  A    between atoms: O4_19  and  C16_20 
REMARK    6  A    between atoms: C17_21  and  O7_29 
REMARK    7  A    between atoms: C18_22  and  O5_24 
ROOT
ATOM      1  C1  UNK A          65.848  17.036  49.506  0.00  0.00     0.088 A 
ATOM      2  C2  UNK A          65.189  17.114  50.744  0.00  0.00     0.067 A 
ATOM      3  C3  UNK A          64.061  17.929  50.910  0.00  0.00     0.076 A 
ATOM      4  C4  UNK A          63.582  18.689  49.835  0.00  0.00     0.068 A 
ATOM      5  C5  UNK A          64.269  18.660  48.614  0.00  0.00     0.098 A 
ATOM      6  C6  UNK A          65.392  17.820  48.416  0.00  0.00     0.083 A 
ATOM      7  C7  UNK A          66.158  17.899  47.156  0.00  0.00     0.193 C 
ATOM      8  O2  UNK A          67.060  17.158  46.778  0.00  0.00    -0.289 OA
ATOM      9  C8  UNK A          65.966  19.105  46.506  0.00  0.00     0.087 C 
ATOM     10  O3  UNK A          63.914  19.593  47.680  0.00  0.00    -0.309 OA
ATOM     11  C9  UNK A          64.912  19.938  46.823  0.00  0.00     0.093 C 
ENDROOT
BRANCH   1  12
ATOM     12  O1  UNK A          66.972  16.260  49.429  0.00  0.00    -0.360 OA
ATOM     13  H1  UNK A          66.748  15.415  48.985  0.00  0.00     0.218 HD
ENDBRANCH   1  12
BRANCH   3  14
ATOM     14  O10 UNK A          63.468  18.032  52.134  0.00  0.00    -0.361 OA
ATOM     15  H10 UNK A          62.610  17.565  52.111  0.00  0.00     0.218 HD
ENDBRANCH   3  14
BRANCH  11  16
ATOM     16  C10 UNK A          65.095  21.367  46.592  0.00  0.00     0.006 A 
ATOM     17  C11 UNK A          64.868  21.960  45.339  0.00  0.00     0.013 A 
ATOM     18  C12 UNK A          65.111  23.339  45.165  0.00  0.00     0.035 A 
ATOM     19  C13 UNK A          65.544  24.132  46.247  0.00  0.00     0.082 A 
ATOM     20  C14 UNK A          65.651  23.559  47.526  0.00  0.00     0.035 A 
ATOM     21  C15 UNK A          65.447  22.179  47.692  0.00  0.00     0.013 A 
BRANCH  19  22
ATOM     22  O4  UNK A          66.054  25.400  45.993  0.00  0.00    -0.305 OA
BRANCH  22  23
ATOM     23  C16 UNK A          66.113  26.264  47.071  0.00  0.00     0.143 C 
ATOM     24  C17 UNK A          67.326  26.457  47.782  0.00  0.00     0.119 C 
ATOM     25  C21 UNK A          67.320  27.224  48.975  0.00  0.00     0.086 C 
ATOM     26  C20 UNK A          66.083  27.643  49.477  0.00  0.00     0.099 C 
ATOM     27  C22 UNK A          68.535  27.740  49.653  0.00  0.00     0.193 C 
ATOM     28  C19 UNK A          64.905  27.537  48.748  0.00  0.00     0.071 C 
ATOM     29  O6  UNK A          66.048  28.334  50.637  0.00  0.00    -0.309 OA
ATOM     30  C18 UNK A          64.925  26.895  47.513  0.00  0.00     0.108 C 
ATOM     31  C24 UNK A          67.002  29.302  50.681  0.00  0.00     0.093 C 
ATOM     32  C25 UNK A          66.596  30.601  50.922  0.00  0.00     0.006 A 
ATOM     33  C23 UNK A          68.299  28.927  50.347  0.00  0.00     0.087 C 
ATOM     34  C26 UNK A          67.449  31.673  50.836  0.00  0.00     0.015 A 
ATOM     35  C30 UNK A          65.257  30.816  51.162  0.00  0.00     0.015 A 
ATOM     36  C27 UNK A          66.938  32.956  50.956  0.00  0.00     0.053 A 
ATOM     37  C28 UNK A          65.602  33.167  51.165  0.00  0.00     0.178 A 
ATOM     38  C29 UNK A          64.764  32.098  51.278  0.00  0.00     0.053 A 
ATOM     39  O9  UNK A          65.154  34.306  51.242  0.00  0.00    -0.290 OA
ATOM     40  O8  UNK A          69.688  27.389  49.428  0.00  0.00    -0.289 OA
BRANCH  24  41
ATOM     41  O7  UNK A          68.492  25.926  47.297  0.00  0.00    -0.357 OA
ATOM     42  H7  UNK A          68.705  25.115  47.802  0.00  0.00     0.218 HD
ENDBRANCH  24  41
BRANCH  30  43
ATOM     43  O5  UNK A          63.777  26.927  46.770  0.00  0.00    -0.358 OA
ATOM     44  H5  UNK A          63.907  26.391  45.967  0.00  0.00     0.218 HD
ENDBRANCH  30  43
ENDBRANCH  22  23
ENDBRANCH  19  22
ENDBRANCH  11  16
TORSDOF 7
ENDMDL
MODEL 3
REMARK VINA RESULT:      -7.1      6.617     15.137
REMARK  7 active torsions:
REMARK  status: ('A' for Active; 'I' for Inactive)
REMARK    1  A    between atoms: C1_1  and  O1_7 
REMARK    2  A    between atoms: C3_3  and  O10_40 
REMARK    3  A    between atoms: C9_12  and  C10_13 
REMARK    4  A    between atoms: C13_16  and  O4_19 
REMARK    5  A    between atoms: O4_19  and  C16_20 
REMARK    6  A    between atoms: C17_21  and  O7_29 
REMARK    7  A    between atoms: C18_22  and  O5_24 
ROOT
ATOM      1  C1  UNK A          65.338  32.191  54.232  0.00  0.00     0.088 A 
ATOM      2  C2  UNK A          65.338  33.515  53.763  0.00  0.00     0.067 A 
ATOM      3  C3  UNK A          64.745  33.845  52.536  0.00  0.00     0.076 A 
ATOM      4  C4  UNK A          64.152  32.845  51.755  0.00  0.00     0.068 A 
ATOM      5  C5  UNK A          64.200  31.515  52.191  0.00  0.00     0.098 A 
ATOM      6  C6  UNK A          64.766  31.164  53.440  0.00  0.00     0.083 A 
ATOM      7  C7  UNK A          64.901  29.743  53.815  0.00  0.00     0.193 C 
ATOM      8  O2  UNK A          65.240  29.281  54.901  0.00  0.00    -0.289 OA
ATOM      9  C8  UNK A          64.882  28.909  52.711  0.00  0.00     0.087 C 
ATOM     10  O3  UNK A          63.830  30.553  51.291  0.00  0.00    -0.309 OA
ATOM     11  C9  UNK A          64.422  29.344  51.485  0.00  0.00     0.093 C 
ENDROOT
BRANCH   1  12
ATOM     12  O1  UNK A          65.979  31.933  55.414  0.00  0.00    -0.360 OA
ATOM     13  H1  UNK A          66.401  32.758  55.735  0.00  0.00     0.218 HD
ENDBRANCH   1  12
BRANCH   3  14
ATOM     14  O10 UNK A          64.802  35.127  52.074  0.00  0.00    -0.361 OA
ATOM     15  H10 UNK A          64.360  35.716  52.716  0.00  0.00     0.218 HD
ENDBRANCH   3  14
BRANCH  11  16
ATOM     16  C10 UNK A          64.971  28.700  50.296  0.00  0.00     0.006 A 
ATOM     17  C11 UNK A          64.155  28.114  49.315  0.00  0.00     0.013 A 
ATOM     18  C12 UNK A          64.748  27.462  48.213  0.00  0.00     0.035 A 
ATOM     19  C13 UNK A          66.150  27.426  48.070  0.00  0.00     0.082 A 
ATOM     20  C14 UNK A          66.956  28.119  48.989  0.00  0.00     0.035 A 
ATOM     21  C15 UNK A          66.370  28.736  50.107  0.00  0.00     0.013 A 
BRANCH  19  22
ATOM     22  O4  UNK A          66.713  26.543  47.158  0.00  0.00    -0.305 OA
BRANCH  22  23
ATOM     23  C16 UNK A          66.389  25.208  47.315  0.00  0.00     0.143 C 
ATOM     24  C17 UNK A          65.408  24.597  46.492  0.00  0.00     0.119 C 
ATOM     25  C21 UNK A          64.984  23.274  46.780  0.00  0.00     0.086 C 
ATOM     26  C20 UNK A          65.453  22.677  47.955  0.00  0.00     0.099 C 
ATOM     27  C22 UNK A          64.195  22.422  45.856  0.00  0.00     0.193 C 
ATOM     28  C19 UNK A          66.475  23.228  48.717  0.00  0.00     0.071 C 
ATOM     29  O6  UNK A          65.025  21.436  48.274  0.00  0.00    -0.309 OA
ATOM     30  C18 UNK A          66.989  24.475  48.367  0.00  0.00     0.108 C 
ATOM     31  C24 UNK A          65.044  20.601  47.202  0.00  0.00     0.093 C 
ATOM     32  C25 UNK A          65.759  19.422  47.311  0.00  0.00     0.006 A 
ATOM     33  C23 UNK A          64.452  21.061  46.030  0.00  0.00     0.087 C 
ATOM     34  C26 UNK A          65.973  18.582  46.247  0.00  0.00     0.015 A 
ATOM     35  C30 UNK A          66.353  19.148  48.523  0.00  0.00     0.015 A 
ATOM     36  C27 UNK A          66.814  17.492  46.403  0.00  0.00     0.053 A 
ATOM     37  C28 UNK A          67.425  17.239  47.601  0.00  0.00     0.178 A 
ATOM     38  C29 UNK A          67.187  18.060  48.663  0.00  0.00     0.053 A 
ATOM     39  O9  UNK A          68.190  16.287  47.724  0.00  0.00    -0.290 OA
ATOM     40  O8  UNK A          63.609  22.803  44.848  0.00  0.00    -0.289 OA
BRANCH  24  41
ATOM     41  O7  UNK A          64.902  25.276  45.415  0.00  0.00    -0.357 OA
ATOM     42  H7  UNK A          65.556  25.944  45.127  0.00  0.00     0.218 HD
ENDBRANCH  24  41
BRANCH  30  43
ATOM     43  O5  UNK A          68.080  24.921  49.061  0.00  0.00    -0.358 OA
ATOM     44  H5  UNK A          67.783  25.563  49.732  0.00  0.00     0.218 HD
ENDBRANCH  30  43
ENDBRANCH  22  23
ENDBRANCH  19  22
ENDBRANCH  11  16
TORSDOF 7
ENDMDL
MODEL 4
REMARK VINA RESULT:      -7.1     20.952     24.697
REMARK  7 active torsions:
REMARK  status: ('A' for Active; 'I' for Inactive)
REMARK    1  A    between atoms: C1_1  and  O1_7 
REMARK    2  A    between atoms: C3_3  and  O10_40 
REMARK    3  A    between atoms: C9_12  and  C10_13 
REMARK    4  A    between atoms: C13_16  and  O4_19 
REMARK    5  A    between atoms: O4_19  and  C16_20 
REMARK    6  A    between atoms: C17_21  and  O7_29 
REMARK    7  A    between atoms: C18_22  and  O5_24 
ROOT
ATOM      1  C1  UNK A          51.392  28.907  30.752  0.00  0.00     0.088 A 
ATOM      2  C2  UNK A          50.362  28.225  31.420  0.00  0.00     0.067 A 
ATOM      3  C3  UNK A          50.583  27.631  32.670  0.00  0.00     0.076 A 
ATOM      4  C4  UNK A          51.849  27.704  33.266  0.00  0.00     0.068 A 
ATOM      5  C5  UNK A          52.895  28.334  32.578  0.00  0.00     0.098 A 
ATOM      6  C6  UNK A          52.685  28.966  31.329  0.00  0.00     0.083 A 
ATOM      7  C7  UNK A          53.832  29.519  30.581  0.00  0.00     0.193 C 
ATOM      8  O2  UNK A          53.805  30.207  29.566  0.00  0.00    -0.289 OA
ATOM      9  C8  UNK A          55.031  28.949  30.970  0.00  0.00     0.087 C 
ATOM     10  O3  UNK A          54.156  28.169  33.081  0.00  0.00    -0.309 OA
ATOM     11  C9  UNK A          55.146  28.244  32.152  0.00  0.00     0.093 C 
ENDROOT
BRANCH   1  12
ATOM     12  O1  UNK A          51.119  29.418  29.512  0.00  0.00    -0.360 OA
ATOM     13  H1  UNK A          50.924  30.375  29.597  0.00  0.00     0.218 HD
ENDBRANCH   1  12
BRANCH   3  14
ATOM     14  O10 UNK A          49.585  26.927  33.278  0.00  0.00    -0.361 OA
ATOM     15  H10 UNK A          49.342  27.377  34.110  0.00  0.00     0.218 HD
ENDBRANCH   3  14
BRANCH  11  16
ATOM     16  C10 UNK A          56.163  27.199  32.211  0.00  0.00     0.006 A 
ATOM     17  C11 UNK A          57.222  27.129  31.290  0.00  0.00     0.013 A 
ATOM     18  C12 UNK A          58.146  26.065  31.369  0.00  0.00     0.035 A 
ATOM     19  C13 UNK A          58.037  25.096  32.387  0.00  0.00     0.082 A 
ATOM     20  C14 UNK A          57.051  25.241  33.378  0.00  0.00     0.035 A 
ATOM     21  C15 UNK A          56.108  26.276  33.278  0.00  0.00     0.013 A 
BRANCH  19  22
ATOM     22  O4  UNK A          58.762  23.916  32.275  0.00  0.00    -0.305 OA
BRANCH  22  23
ATOM     23  C16 UNK A          58.421  23.084  31.225  0.00  0.00     0.143 C 
ATOM     24  C17 UNK A          59.185  23.073  30.029  0.00  0.00     0.119 C 
ATOM     25  C21 UNK A          58.721  22.329  28.914  0.00  0.00     0.086 C 
ATOM     26  C20 UNK A          57.451  21.747  28.996  0.00  0.00     0.099 C 
ATOM     27  C22 UNK A          59.541  21.998  27.721  0.00  0.00     0.193 C 
ATOM     28  C19 UNK A          56.737  21.678  30.186  0.00  0.00     0.071 C 
ATOM     29  O6  UNK A          56.969  21.075  27.929  0.00  0.00    -0.309 OA
ATOM     30  C18 UNK A          57.247  22.299  31.323  0.00  0.00     0.108 C 
ATOM     31  C24 UNK A          57.903  20.251  27.383  0.00  0.00     0.093 C 
ATOM     32  C25 UNK A          57.588  18.911  27.254  0.00  0.00     0.006 A 
ATOM     33  C23 UNK A          59.154  20.799  27.120  0.00  0.00     0.087 C 
ATOM     34  C26 UNK A          58.505  17.968  26.861  0.00  0.00     0.015 A 
ATOM     35  C30 UNK A          56.324  18.515  27.631  0.00  0.00     0.015 A 
ATOM     36  C27 UNK A          58.151  16.628  26.888  0.00  0.00     0.053 A 
ATOM     37  C28 UNK A          56.904  16.236  27.292  0.00  0.00     0.178 A 
ATOM     38  C29 UNK A          55.988  17.178  27.653  0.00  0.00     0.053 A 
ATOM     39  O9  UNK A          56.608  15.046  27.339  0.00  0.00    -0.290 OA
ATOM     40  O8  UNK A          60.618  22.504  27.425  0.00  0.00    -0.289 OA
BRANCH  24  41
ATOM     41  O7  UNK A          60.372  23.755  29.972  0.00  0.00    -0.357 OA
ATOM     42  H7  UNK A          60.252  24.632  30.387  0.00  0.00     0.218 HD
ENDBRANCH  24  41
BRANCH  30  43
ATOM     43  O5  UNK A          56.581  22.095  32.500  0.00  0.00    -0.358 OA
ATOM     44  H5  UNK A          57.129  22.431  33.233  0.00  0.00     0.218 HD
ENDBRANCH  30  43
ENDBRANCH  22  23
ENDBRANCH  19  22
ENDBRANCH  11  16
TORSDOF 7
ENDMDL
MODEL 5
REMARK VINA RESULT:      -7.0     16.285     21.738
REMARK  7 active torsions:
REMARK  status: ('A' for Active; 'I' for Inactive)
REMARK    1  A    between atoms: C1_1  and  O1_7 
REMARK    2  A    between atoms: C3_3  and  O10_40 
REMARK    3  A    between atoms: C9_12  and  C10_13 
REMARK    4  A    between atoms: C13_16  and  O4_19 
REMARK    5  A    between atoms: O4_19  and  C16_20 
REMARK    6  A    between atoms: C17_21  and  O7_29 
REMARK    7  A    between atoms: C18_22  and  O5_24 
ROOT
ATOM      1  C1  UNK A          68.262  20.839  27.392  0.00  0.00     0.088 A 
ATOM      2  C2  UNK A          67.250  20.855  28.366  0.00  0.00     0.067 A 
ATOM      3  C3  UNK A          67.553  21.090  29.715  0.00  0.00     0.076 A 
ATOM      4  C4  UNK A          68.880  21.303  30.108  0.00  0.00     0.068 A 
ATOM      5  C5  UNK A          69.899  21.231  29.149  0.00  0.00     0.098 A 
ATOM      6  C6  UNK A          69.613  21.025  27.778  0.00  0.00     0.083 A 
ATOM      7  C7  UNK A          70.717  20.842  26.814  0.00  0.00     0.193 C 
ATOM      8  O2  UNK A          70.644  20.790  25.590  0.00  0.00    -0.289 OA
ATOM      9  C8  UNK A          71.885  20.434  27.432  0.00  0.00     0.087 C 
ATOM     10  O3  UNK A          71.186  21.201  29.612  0.00  0.00    -0.309 OA
ATOM     11  C9  UNK A          72.062  20.556  28.796  0.00  0.00     0.093 C 
ENDROOT
BRANCH   1  12
ATOM     12  O1  UNK A          67.902  20.553  26.103  0.00  0.00    -0.360 OA
ATOM     13  H1  UNK A          67.518  19.651  26.071  0.00  0.00     0.218 HD
ENDBRANCH   1  12
BRANCH   3  14
ATOM     14  O10 UNK A          66.563  21.048  30.653  0.00  0.00    -0.361 OA
ATOM     15  H10 UNK A          66.896  21.443  31.482  0.00  0.00     0.218 HD
ENDBRANCH   3  14
BRANCH  11  16
ATOM     16  C10 UNK A          72.962  19.607  29.442  0.00  0.00     0.006 A 
ATOM     17  C11 UNK A          72.827  18.218  29.284  0.00  0.00     0.013 A 
ATOM     18  C12 UNK A          73.697  17.349  29.976  0.00  0.00     0.035 A 
ATOM     19  C13 UNK A          74.724  17.864  30.793  0.00  0.00     0.082 A 
ATOM     20  C14 UNK A          74.932  19.253  30.849  0.00  0.00     0.035 A 
ATOM     21  C15 UNK A          74.043  20.119  30.193  0.00  0.00     0.013 A 
BRANCH  19  22
ATOM     22  O4  UNK A          75.370  17.013  31.682  0.00  0.00    -0.305 OA
BRANCH  22  23
ATOM     23  C16 UNK A          74.562  16.324  32.568  0.00  0.00     0.143 C 
ATOM     24  C17 UNK A          74.276  14.948  32.371  0.00  0.00     0.119 C 
ATOM     25  C21 UNK A          73.322  14.309  33.203  0.00  0.00     0.086 C 
ATOM     26  C20 UNK A          72.597  15.104  34.098  0.00  0.00     0.099 C 
ATOM     27  C22 UNK A          73.137  12.840  33.300  0.00  0.00     0.193 C 
ATOM     28  C19 UNK A          72.928  16.428  34.360  0.00  0.00     0.071 C 
ATOM     29  O6  UNK A          71.649  14.526  34.866  0.00  0.00    -0.309 OA
ATOM     30  C18 UNK A          73.953  17.029  33.633  0.00  0.00     0.108 C 
ATOM     31  C24 UNK A          72.081  13.359  35.413  0.00  0.00     0.093 C 
ATOM     32  C25 UNK A          72.020  13.226  36.788  0.00  0.00     0.006 A 
ATOM     33  C23 UNK A          72.675  12.439  34.555  0.00  0.00     0.087 C 
ATOM     34  C26 UNK A          72.568  12.159  37.455  0.00  0.00     0.015 A 
ATOM     35  C30 UNK A          71.468  14.265  37.504  0.00  0.00     0.015 A 
ATOM     36  C27 UNK A          72.588  12.165  38.841  0.00  0.00     0.053 A 
ATOM     37  C28 UNK A          72.065  13.212  39.550  0.00  0.00     0.178 A 
ATOM     38  C29 UNK A          71.496  14.256  38.883  0.00  0.00     0.053 A 
ATOM     39  O9  UNK A          72.112  13.223  40.776  0.00  0.00    -0.290 OA
ATOM     40  O8  UNK A          73.593  12.004  32.528  0.00  0.00    -0.289 OA
BRANCH  24  41
ATOM     41  O7  UNK A          74.942  14.245  31.401  0.00  0.00    -0.357 OA
ATOM     42  H7  UNK A          74.412  13.459  31.161  0.00  0.00     0.218 HD
ENDBRANCH  24  41
BRANCH  30  43
ATOM     43  O5  UNK A          74.335  18.287  34.012  0.00  0.00    -0.358 OA
ATOM     44  H5  UNK A          74.851  18.223  34.835  0.00  0.00     0.218 HD
ENDBRANCH  30  43
ENDBRANCH  22  23
ENDBRANCH  19  22
ENDBRANCH  11  16
TORSDOF 7
ENDMDL
MODEL 6
REMARK VINA RESULT:      -6.9      8.152     10.079
REMARK  7 active torsions:
REMARK  status: ('A' for Active; 'I' for Inactive)
REMARK    1  A    between atoms: C1_1  and  O1_7 
REMARK    2  A    between atoms: C3_3  and  O10_40 
REMARK    3  A    between atoms: C9_12  and  C10_13 
REMARK    4  A    between atoms: C13_16  and  O4_19 
REMARK    5  A    between atoms: O4_19  and  C16_20 
REMARK    6  A    between atoms: C17_21  and  O7_29 
REMARK    7  A    between atoms: C18_22  and  O5_24 
ROOT
ATOM      1  C1  UNK A          52.783  13.861  55.063  0.00  0.00     0.088 A 
ATOM      2  C2  UNK A          53.104  13.202  53.865  0.00  0.00     0.067 A 
ATOM      3  C3  UNK A          54.377  13.330  53.291  0.00  0.00     0.076 A 
ATOM      4  C4  UNK A          55.345  14.134  53.908  0.00  0.00     0.068 A 
ATOM      5  C5  UNK A          55.011  14.839  55.071  0.00  0.00     0.098 A 
ATOM      6  C6  UNK A          53.743  14.699  55.684  0.00  0.00     0.083 A 
ATOM      7  C7  UNK A          53.387  15.543  56.842  0.00  0.00     0.193 C 
ATOM      8  O2  UNK A          52.396  15.453  57.561  0.00  0.00    -0.289 OA
ATOM      9  C8  UNK A          54.158  16.690  56.907  0.00  0.00     0.087 C 
ATOM     10  O3  UNK A          55.898  15.790  55.496  0.00  0.00    -0.309 OA
ATOM     11  C9  UNK A          55.334  16.812  56.195  0.00  0.00     0.093 C 
ENDROOT
BRANCH   1  12
ATOM     12  O1  UNK A          51.506  13.732  55.539  0.00  0.00    -0.360 OA
ATOM     13  H1  UNK A          51.101  14.622  55.613  0.00  0.00     0.218 HD
ENDBRANCH   1  12
BRANCH   3  14
ATOM     14  O10 UNK A          54.652  12.725  52.100  0.00  0.00    -0.361 OA
ATOM     15  H10 UNK A          53.920  12.900  51.479  0.00  0.00     0.218 HD
ENDBRANCH   3  14
BRANCH  11  16
ATOM     16  C10 UNK A          55.749  18.157  55.812  0.00  0.00     0.006 A 
ATOM     17  C11 UNK A          56.914  18.400  55.066  0.00  0.00     0.013 A 
ATOM     18  C12 UNK A          57.289  19.727  54.771  0.00  0.00     0.035 A 
ATOM     19  C13 UNK A          56.485  20.809  55.184  0.00  0.00     0.082 A 
ATOM     20  C14 UNK A          55.259  20.554  55.823  0.00  0.00     0.035 A 
ATOM     21  C15 UNK A          54.903  19.236  56.151  0.00  0.00     0.013 A 
BRANCH  19  22
ATOM     22  O4  UNK A          57.010  22.095  55.145  0.00  0.00    -0.305 OA
BRANCH  22  23
ATOM     23  C16 UNK A          58.380  22.193  54.988  0.00  0.00     0.143 C 
ATOM     24  C17 UNK A          59.242  22.196  56.116  0.00  0.00     0.119 C 
ATOM     25  C21 UNK A          60.624  22.456  55.935  0.00  0.00     0.086 C 
ATOM     26  C20 UNK A          61.058  22.838  54.660  0.00  0.00     0.099 C 
ATOM     27  C22 UNK A          61.670  22.212  56.960  0.00  0.00     0.193 C 
ATOM     28  C19 UNK A          60.244  22.753  53.538  0.00  0.00     0.071 C 
ATOM     29  O6  UNK A          62.361  23.138  54.475  0.00  0.00    -0.309 OA
ATOM     30  C18 UNK A          58.913  22.374  53.689  0.00  0.00     0.108 C 
ATOM     31  C24 UNK A          63.180  22.231  55.072  0.00  0.00     0.093 C 
ATOM     32  C25 UNK A          64.127  21.599  54.287  0.00  0.00     0.006 A 
ATOM     33  C23 UNK A          62.912  21.912  56.399  0.00  0.00     0.087 C 
ATOM     34  C26 UNK A          64.899  20.561  54.747  0.00  0.00     0.015 A 
ATOM     35  C30 UNK A          64.215  21.978  52.966  0.00  0.00     0.015 A 
ATOM     36  C27 UNK A          65.727  19.889  53.862  0.00  0.00     0.053 A 
ATOM     37  C28 UNK A          65.790  20.249  52.543  0.00  0.00     0.178 A 
ATOM     38  C29 UNK A          65.044  21.299  52.098  0.00  0.00     0.053 A 
ATOM     39  O9  UNK A          66.505  19.631  51.760  0.00  0.00    -0.290 OA
ATOM     40  O8  UNK A          61.473  21.989  58.150  0.00  0.00    -0.289 OA
BRANCH  24  41
ATOM     41  O7  UNK A          58.738  21.922  57.360  0.00  0.00    -0.357 OA
ATOM     42  H7  UNK A          58.218  21.094  57.315  0.00  0.00     0.218 HD
ENDBRANCH  24  41
BRANCH  30  43
ATOM     43  O5  UNK A          58.184  22.175  52.549  0.00  0.00    -0.358 OA
ATOM     44  H5  UNK A          57.645  22.970  52.379  0.00  0.00     0.218 HD
ENDBRANCH  30  43
ENDBRANCH  22  23
ENDBRANCH  19  22
ENDBRANCH  11  16
TORSDOF 7
ENDMDL
MODEL 7
REMARK VINA RESULT:      -6.8      7.651     10.664
REMARK  7 active torsions:
REMARK  status: ('A' for Active; 'I' for Inactive)
REMARK    1  A    between atoms: C1_1  and  O1_7 
REMARK    2  A    between atoms: C3_3  and  O10_40 
REMARK    3  A    between atoms: C9_12  and  C10_13 
REMARK    4  A    between atoms: C13_16  and  O4_19 
REMARK    5  A    between atoms: O4_19  and  C16_20 
REMARK    6  A    between atoms: C17_21  and  O7_29 
REMARK    7  A    between atoms: C18_22  and  O5_24 
ROOT
ATOM      1  C1  UNK A          54.819  21.012  58.323  0.00  0.00     0.088 A 
ATOM      2  C2  UNK A          54.677  21.794  59.481  0.00  0.00     0.067 A 
ATOM      3  C3  UNK A          55.295  23.048  59.584  0.00  0.00     0.076 A 
ATOM      4  C4  UNK A          56.077  23.531  58.527  0.00  0.00     0.068 A 
ATOM      5  C5  UNK A          56.269  22.730  57.393  0.00  0.00     0.098 A 
ATOM      6  C6  UNK A          55.629  21.475  57.256  0.00  0.00     0.083 A 
ATOM      7  C7  UNK A          55.943  20.610  56.102  0.00  0.00     0.193 C 
ATOM      8  O2  UNK A          55.385  19.569  55.769  0.00  0.00    -0.289 OA
ATOM      9  C8  UNK A          57.165  20.923  55.534  0.00  0.00     0.087 C 
ATOM     10  O3  UNK A          57.226  23.134  56.504  0.00  0.00    -0.309 OA
ATOM     11  C9  UNK A          57.797  22.122  55.795  0.00  0.00     0.093 C 
ENDROOT
BRANCH   1  12
ATOM     12  O1  UNK A          54.229  19.776  58.312  0.00  0.00    -0.360 OA
ATOM     13  H1  UNK A          54.023  19.512  59.233  0.00  0.00     0.218 HD
ENDBRANCH   1  12
BRANCH   3  14
ATOM     14  O10 UNK A          55.189  23.769  60.737  0.00  0.00    -0.361 OA
ATOM     15  H10 UNK A          55.916  23.515  61.338  0.00  0.00     0.218 HD
ENDBRANCH   3  14
BRANCH  11  16
ATOM     16  C10 UNK A          59.253  22.145  55.703  0.00  0.00     0.006 A 
ATOM     17  C11 UNK A          59.933  22.929  54.756  0.00  0.00     0.013 A 
ATOM     18  C12 UNK A          61.341  22.869  54.683  0.00  0.00     0.035 A 
ATOM     19  C13 UNK A          62.072  22.061  55.577  0.00  0.00     0.082 A 
ATOM     20  C14 UNK A          61.395  21.376  56.601  0.00  0.00     0.035 A 
ATOM     21  C15 UNK A          59.992  21.403  56.650  0.00  0.00     0.013 A 
BRANCH  19  22
ATOM     22  O4  UNK A          63.407  21.790  55.305  0.00  0.00    -0.305 OA
BRANCH  22  23
ATOM     23  C16 UNK A          63.717  21.492  53.991  0.00  0.00     0.143 C 
ATOM     24  C17 UNK A          63.385  20.229  53.435  0.00  0.00     0.119 C 
ATOM     25  C21 UNK A          63.854  19.894  52.138  0.00  0.00     0.086 C 
ATOM     26  C20 UNK A          64.746  20.775  51.517  0.00  0.00     0.099 C 
ATOM     27  C22 UNK A          63.357  18.753  51.331  0.00  0.00     0.193 C 
ATOM     28  C19 UNK A          65.006  22.047  52.010  0.00  0.00     0.071 C 
ATOM     29  O6  UNK A          65.243  20.454  50.303  0.00  0.00    -0.309 OA
ATOM     30  C18 UNK A          64.445  22.433  53.225  0.00  0.00     0.108 C 
ATOM     31  C24 UNK A          64.278  19.987  49.466  0.00  0.00     0.093 C 
ATOM     32  C25 UNK A          64.112  20.622  48.249  0.00  0.00     0.006 A 
ATOM     33  C23 UNK A          63.443  18.988  49.958  0.00  0.00     0.087 C 
ATOM     34  C26 UNK A          63.075  20.335  47.398  0.00  0.00     0.015 A 
ATOM     35  C30 UNK A          64.979  21.648  47.944  0.00  0.00     0.015 A 
ATOM     36  C27 UNK A          62.898  21.109  46.261  0.00  0.00     0.053 A 
ATOM     37  C28 UNK A          63.743  22.146  45.976  0.00  0.00     0.178 A 
ATOM     38  C29 UNK A          64.789  22.409  46.810  0.00  0.00     0.053 A 
ATOM     39  O9  UNK A          63.563  22.844  44.983  0.00  0.00    -0.290 OA
ATOM     40  O8  UNK A          62.672  17.823  51.743  0.00  0.00    -0.289 OA
BRANCH  24  41
ATOM     41  O7  UNK A          62.596  19.359  54.140  0.00  0.00    -0.357 OA
ATOM     42  H7  UNK A          62.215  19.830  54.909  0.00  0.00     0.218 HD
ENDBRANCH  24  41
BRANCH  30  43
ATOM     43  O5  UNK A          64.619  23.735  53.610  0.00  0.00    -0.358 OA
ATOM     44  H5  UNK A          65.470  24.054  53.260  0.00  0.00     0.218 HD
ENDBRANCH  30  43
ENDBRANCH  22  23
ENDBRANCH  19  22
ENDBRANCH  11  16
TORSDOF 7
ENDMDL
MODEL 8
REMARK VINA RESULT:      -6.8     10.577     15.179
REMARK  7 active torsions:
REMARK  status: ('A' for Active; 'I' for Inactive)
REMARK    1  A    between atoms: C1_1  and  O1_7 
REMARK    2  A    between atoms: C3_3  and  O10_40 
REMARK    3  A    between atoms: C9_12  and  C10_13 
REMARK    4  A    between atoms: C13_16  and  O4_19 
REMARK    5  A    between atoms: O4_19  and  C16_20 
REMARK    6  A    between atoms: C17_21  and  O7_29 
REMARK    7  A    between atoms: C18_22  and  O5_24 
ROOT
ATOM      1  C1  UNK A          59.487  21.501  55.214  0.00  0.00     0.088 A 
ATOM      2  C2  UNK A          59.002  22.087  54.033  0.00  0.00     0.067 A 
ATOM      3  C3  UNK A          57.667  21.918  53.640  0.00  0.00     0.076 A 
ATOM      4  C4  UNK A          56.799  21.146  54.424  0.00  0.00     0.068 A 
ATOM      5  C5  UNK A          57.292  20.513  55.572  0.00  0.00     0.098 A 
ATOM      6  C6  UNK A          58.628  20.695  56.003  0.00  0.00     0.083 A 
ATOM      7  C7  UNK A          59.144  19.922  57.151  0.00  0.00     0.193 C 
ATOM      8  O2  UNK A          60.220  20.060  57.726  0.00  0.00    -0.289 OA
ATOM      9  C8  UNK A          58.404  18.777  57.382  0.00  0.00     0.087 C 
ATOM     10  O3  UNK A          56.482  19.583  56.164  0.00  0.00    -0.309 OA
ATOM     11  C9  UNK A          57.146  18.607  56.839  0.00  0.00     0.093 C 
ENDROOT
BRANCH   1  12
ATOM     12  O1  UNK A          60.813  21.665  55.509  0.00  0.00    -0.360 OA
ATOM     13  H1  UNK A          60.971  21.386  56.436  0.00  0.00     0.218 HD
ENDBRANCH   1  12
BRANCH   3  14
ATOM     14  O10 UNK A          57.229  22.451  52.464  0.00  0.00    -0.361 OA
ATOM     15  H10 UNK A          57.781  23.225  52.241  0.00  0.00     0.218 HD
ENDBRANCH   3  14
BRANCH  11  16
ATOM     16  C10 UNK A          56.703  17.239  56.593  0.00  0.00     0.006 A 
ATOM     17  C11 UNK A          56.349  16.784  55.312  0.00  0.00     0.013 A 
ATOM     18  C12 UNK A          55.879  15.464  55.145  0.00  0.00     0.035 A 
ATOM     19  C13 UNK A          55.799  14.588  56.246  0.00  0.00     0.082 A 
ATOM     20  C14 UNK A          56.270  15.009  57.502  0.00  0.00     0.035 A 
ATOM     21  C15 UNK A          56.702  16.334  57.676  0.00  0.00     0.013 A 
BRANCH  19  22
ATOM     22  O4  UNK A          55.070  13.412  56.121  0.00  0.00    -0.305 OA
BRANCH  22  23
ATOM     23  C16 UNK A          53.758  13.545  55.706  0.00  0.00     0.143 C 
ATOM     24  C17 UNK A          52.743  13.933  56.619  0.00  0.00     0.119 C 
ATOM     25  C21 UNK A          51.386  13.909  56.204  0.00  0.00     0.086 C 
ATOM     26  C20 UNK A          51.096  13.365  54.947  0.00  0.00     0.099 C 
ATOM     27  C22 UNK A          50.268  14.548  56.939  0.00  0.00     0.193 C 
ATOM     28  C19 UNK A          52.082  13.066  54.016  0.00  0.00     0.071 C 
ATOM     29  O6  UNK A          49.807  13.287  54.551  0.00  0.00    -0.309 OA
ATOM     30  C18 UNK A          53.421  13.208  54.373  0.00  0.00     0.108 C 
ATOM     31  C24 UNK A          49.126  14.434  54.811  0.00  0.00     0.093 C 
ATOM     32  C25 UNK A          48.487  15.062  53.757  0.00  0.00     0.006 A 
ATOM     33  C23 UNK A          49.235  14.958  56.095  0.00  0.00     0.087 C 
ATOM     34  C26 UNK A          47.902  16.298  53.874  0.00  0.00     0.015 A 
ATOM     35  C30 UNK A          48.537  14.446  52.526  0.00  0.00     0.015 A 
ATOM     36  C27 UNK A          47.404  16.921  52.740  0.00  0.00     0.053 A 
ATOM     37  C28 UNK A          47.481  16.319  51.513  0.00  0.00     0.178 A 
ATOM     38  C29 UNK A          48.037  15.079  51.407  0.00  0.00     0.053 A 
ATOM     39  O9  UNK A          47.063  16.889  50.511  0.00  0.00    -0.290 OA
ATOM     40  O8  UNK A          50.309  14.966  58.092  0.00  0.00    -0.289 OA
BRANCH  24  41
ATOM     41  O7  UNK A          53.082  14.353  57.878  0.00  0.00    -0.357 OA
ATOM     42  H7  UNK A          52.379  14.082  58.502  0.00  0.00     0.218 HD
ENDBRANCH  24  41
BRANCH  30  43
ATOM     43  O5  UNK A          54.354  13.030  53.389  0.00  0.00    -0.358 OA
ATOM     44  H5  UNK A          55.073  13.676  53.518  0.00  0.00     0.218 HD
ENDBRANCH  30  43
ENDBRANCH  22  23
ENDBRANCH  19  22
ENDBRANCH  11  16
TORSDOF 7
ENDMDL
MODEL 9
REMARK VINA RESULT:      -6.8      5.977      8.920
REMARK  7 active torsions:
REMARK  status: ('A' for Active; 'I' for Inactive)
REMARK    1  A    between atoms: C1_1  and  O1_7 
REMARK    2  A    between atoms: C3_3  and  O10_40 
REMARK    3  A    between atoms: C9_12  and  C10_13 
REMARK    4  A    between atoms: C13_16  and  O4_19 
REMARK    5  A    between atoms: O4_19  and  C16_20 
REMARK    6  A    between atoms: C17_21  and  O7_29 
REMARK    7  A    between atoms: C18_22  and  O5_24 
ROOT
ATOM      1  C1  UNK A          59.300  23.017  56.906  0.00  0.00     0.088 A 
ATOM      2  C2  UNK A          57.927  22.774  56.741  0.00  0.00     0.067 A 
ATOM      3  C3  UNK A          57.454  21.492  56.428  0.00  0.00     0.076 A 
ATOM      4  C4  UNK A          58.357  20.434  56.264  0.00  0.00     0.068 A 
ATOM      5  C5  UNK A          59.731  20.682  56.371  0.00  0.00     0.098 A 
ATOM      6  C6  UNK A          60.229  21.962  56.717  0.00  0.00     0.083 A 
ATOM      7  C7  UNK A          61.683  22.215  56.708  0.00  0.00     0.193 C 
ATOM      8  O2  UNK A          62.275  23.213  57.107  0.00  0.00    -0.289 OA
ATOM      9  C8  UNK A          62.365  21.305  55.920  0.00  0.00     0.087 C 
ATOM     10  O3  UNK A          60.575  19.685  55.966  0.00  0.00    -0.309 OA
ATOM     11  C9  UNK A          61.784  20.118  55.518  0.00  0.00     0.093 C 
ENDROOT
BRANCH   1  12
ATOM     12  O1  UNK A          59.696  24.302  57.160  0.00  0.00    -0.360 OA
ATOM     13  H1  UNK A          59.461  24.531  58.084  0.00  0.00     0.218 HD
ENDBRANCH   1  12
BRANCH   3  14
ATOM     14  O10 UNK A          56.121  21.289  56.220  0.00  0.00    -0.361 OA
ATOM     15  H10 UNK A          55.806  20.599  56.835  0.00  0.00     0.218 HD
ENDBRANCH   3  14
BRANCH  11  16
ATOM     16  C10 UNK A          62.253  19.534  54.266  0.00  0.00     0.006 A 
ATOM     17  C11 UNK A          62.637  18.186  54.164  0.00  0.00     0.013 A 
ATOM     18  C12 UNK A          63.129  17.692  52.938  0.00  0.00     0.035 A 
ATOM     19  C13 UNK A          63.203  18.529  51.806  0.00  0.00     0.082 A 
ATOM     20  C14 UNK A          62.703  19.840  51.881  0.00  0.00     0.035 A 
ATOM     21  C15 UNK A          62.249  20.344  53.110  0.00  0.00     0.013 A 
BRANCH  19  22
ATOM     22  O4  UNK A          63.952  18.118  50.710  0.00  0.00    -0.305 OA
BRANCH  22  23
ATOM     23  C16 UNK A          64.362  19.111  49.840  0.00  0.00     0.143 C 
ATOM     24  C17 UNK A          63.679  19.330  48.615  0.00  0.00     0.119 C 
ATOM     25  C21 UNK A          64.215  20.246  47.674  0.00  0.00     0.086 C 
ATOM     26  C20 UNK A          65.476  20.794  47.937  0.00  0.00     0.099 C 
ATOM     27  C22 UNK A          63.478  20.780  46.502  0.00  0.00     0.193 C 
ATOM     28  C19 UNK A          66.109  20.656  49.166  0.00  0.00     0.071 C 
ATOM     29  O6  UNK A          66.028  21.631  47.033  0.00  0.00    -0.309 OA
ATOM     30  C18 UNK A          65.525  19.857  50.146  0.00  0.00     0.108 C 
ATOM     31  C24 UNK A          65.131  22.544  46.573  0.00  0.00     0.093 C 
ATOM     32  C25 UNK A          65.451  23.884  46.692  0.00  0.00     0.006 A 
ATOM     33  C23 UNK A          63.901  22.059  46.139  0.00  0.00     0.087 C 
ATOM     34  C26 UNK A          64.561  24.888  46.403  0.00  0.00     0.015 A 
ATOM     35  C30 UNK A          66.686  24.199  47.214  0.00  0.00     0.015 A 
ATOM     36  C27 UNK A          64.909  26.201  46.679  0.00  0.00     0.053 A 
ATOM     37  C28 UNK A          66.125  26.508  47.225  0.00  0.00     0.178 A 
ATOM     38  C29 UNK A          67.017  25.510  47.482  0.00  0.00     0.053 A 
ATOM     39  O9  UNK A          66.415  27.670  47.492  0.00  0.00    -0.290 OA
ATOM     40  O8  UNK A          62.424  20.342  46.054  0.00  0.00    -0.289 OA
BRANCH  24  41
ATOM     41  O7  UNK A          62.501  18.678  48.365  0.00  0.00    -0.357 OA
ATOM     42  H7  UNK A          62.008  18.583  49.205  0.00  0.00     0.218 HD
ENDBRANCH  24  41
BRANCH  30  43
ATOM     43  O5  UNK A          66.110  19.854  51.383  0.00  0.00    -0.358 OA
ATOM     44  H5  UNK A          66.703  20.624  51.451  0.00  0.00     0.218 HD
ENDBRANCH  30  43
ENDBRANCH  22  23
ENDBRANCH  19  22
ENDBRANCH  11  16
TORSDOF 7
ENDMDL
