MODEL 1
REMARK VINA RESULT:      -8.1      0.000      0.000
REMARK  7 active torsions:
REMARK  status: ('A' for Active; 'I' for Inactive)
REMARK    1  A    between atoms: C1_1  and  O1_7 
REMARK    2  A    between atoms: C3_3  and  O10_40 
REMARK    3  A    between atoms: C9_12  and  C10_13 
REMARK    4  A    between atoms: C13_16  and  O4_19 
REMARK    5  A    between atoms: O4_19  and  C16_20 
REMARK    6  A    between atoms: C17_21  and  O7_29 
REMARK    7  A    between atoms: C18_22  and  O5_24 
ROOT
ATOM      1  C1  UNK A          65.187  23.680  46.704  0.00  0.00     0.088 A 
ATOM      2  C2  UNK A          64.200  23.842  45.719  0.00  0.00     0.067 A 
ATOM      3  C3  UNK A          63.214  22.865  45.519  0.00  0.00     0.076 A 
ATOM      4  C4  UNK A          63.212  21.703  46.302  0.00  0.00     0.068 A 
ATOM      5  C5  UNK A          64.228  21.511  47.247  0.00  0.00     0.098 A 
ATOM      6  C6  UNK A          65.215  22.498  47.486  0.00  0.00     0.083 A 
ATOM      7  C7  UNK A          66.334  22.214  48.406  0.00  0.00     0.193 C 
ATOM      8  O2  UNK A          67.183  22.997  48.819  0.00  0.00    -0.289 OA
ATOM      9  C8  UNK A          66.539  20.856  48.572  0.00  0.00     0.087 C 
ATOM     10  O3  UNK A          64.326  20.267  47.808  0.00  0.00    -0.309 OA
ATOM     11  C9  UNK A          65.580  19.930  48.214  0.00  0.00     0.093 C 
ENDROOT
BRANCH   1  12
ATOM     12  O1  UNK A          66.148  24.650  46.810  0.00  0.00    -0.360 OA
ATOM     13  H1  UNK A          66.264  25.081  45.937  0.00  0.00     0.218 HD
ENDBRANCH   1  12
BRANCH   3  14
ATOM     14  O10 UNK A          62.296  23.016  44.522  0.00  0.00    -0.361 OA
ATOM     15  H10 UNK A          61.420  23.182  44.919  0.00  0.00     0.218 HD
ENDBRANCH   3  14
BRANCH  11  16
ATOM     16  C10 UNK A          66.042  18.600  47.833  0.00  0.00     0.006 A 
ATOM     17  C11 UNK A          65.167  17.508  47.708  0.00  0.00     0.013 A 
ATOM     18  C12 UNK A          65.682  16.235  47.386  0.00  0.00     0.035 A 
ATOM     19  C13 UNK A          67.060  16.058  47.150  0.00  0.00     0.082 A 
ATOM     20  C14 UNK A          67.912  17.176  47.155  0.00  0.00     0.035 A 
ATOM     21  C15 UNK A          67.408  18.436  47.513  0.00  0.00     0.013 A 
BRANCH  19  22
ATOM     22  O4  UNK A          67.581  14.769  47.127  0.00  0.00    -0.305 OA
BRANCH  22  23
ATOM     23  C16 UNK A          66.863  13.805  47.810  0.00  0.00     0.143 C 
ATOM     24  C17 UNK A          66.988  13.667  49.217  0.00  0.00     0.119 C 
ATOM     25  C21 UNK A          66.364  12.572  49.867  0.00  0.00     0.086 C 
ATOM     26  C20 UNK A          65.763  11.592  49.068  0.00  0.00     0.099 C 
ATOM     27  C22 UNK A          66.171  12.460  51.334  0.00  0.00     0.193 C 
ATOM     28  C19 UNK A          65.558  11.761  47.705  0.00  0.00     0.071 C 
ATOM     29  O6  UNK A          65.204  10.516  49.663  0.00  0.00    -0.309 OA
ATOM     30  C18 UNK A          66.060  12.899  47.077  0.00  0.00     0.108 C 
ATOM     31  C24 UNK A          64.453  10.864  50.741  0.00  0.00     0.093 C 
ATOM     32  C25 UNK A          63.131  10.460  50.769  0.00  0.00     0.006 A 
ATOM     33  C23 UNK A          65.040  11.716  51.672  0.00  0.00     0.087 C 
ATOM     34  C26 UNK A          62.246  10.882  51.729  0.00  0.00     0.015 A 
ATOM     35  C30 UNK A          62.684   9.678  49.728  0.00  0.00     0.015 A 
ATOM     36  C27 UNK A          60.907  10.544  51.611  0.00  0.00     0.053 A 
ATOM     37  C28 UNK A          60.460   9.791  50.558  0.00  0.00     0.178 A 
ATOM     38  C29 UNK A          61.349   9.349  49.624  0.00  0.00     0.053 A 
ATOM     39  O9  UNK A          59.269   9.519  50.446  0.00  0.00    -0.290 OA
ATOM     40  O8  UNK A          66.717  13.152  52.187  0.00  0.00    -0.289 OA
BRANCH  24  41
ATOM     41  O7  UNK A          67.685  14.603  49.935  0.00  0.00    -0.357 OA
ATOM     42  H7  UNK A          68.448  14.906  49.402  0.00  0.00     0.218 HD
ENDBRANCH  24  41
BRANCH  30  43
ATOM     43  O5  UNK A          65.724  13.090  45.765  0.00  0.00    -0.358 OA
ATOM     44  H5  UNK A          65.859  12.255  45.282  0.00  0.00     0.218 HD
ENDBRANCH  30  43
ENDBRANCH  22  23
ENDBRANCH  19  22
ENDBRANCH  11  16
TORSDOF 7
ENDMDL
MODEL 2
REMARK VINA RESULT:      -7.9      1.964     10.920
REMARK  7 active torsions:
REMARK  status: ('A' for Active; 'I' for Inactive)
REMARK    1  A    between atoms: C1_1  and  O1_7 
REMARK    2  A    between atoms: C3_3  and  O10_40 
REMARK    3  A    between atoms: C9_12  and  C10_13 
REMARK    4  A    between atoms: C13_16  and  O4_19 
REMARK    5  A    between atoms: O4_19  and  C16_20 
REMARK    6  A    between atoms: C17_21  and  O7_29 
REMARK    7  A    between atoms: C18_22  and  O5_24 
ROOT
ATOM      1  C1  UNK A          61.188   7.800  51.696  0.00  0.00     0.088 A 
ATOM      2  C2  UNK A          60.247   8.367  52.571  0.00  0.00     0.067 A 
ATOM      3  C3  UNK A          59.840   9.701  52.426  0.00  0.00     0.076 A 
ATOM      4  C4  UNK A          60.383  10.491  51.405  0.00  0.00     0.068 A 
ATOM      5  C5  UNK A          61.364   9.948  50.566  0.00  0.00     0.098 A 
ATOM      6  C6  UNK A          61.767   8.595  50.674  0.00  0.00     0.083 A 
ATOM      7  C7  UNK A          62.883   8.089  49.850  0.00  0.00     0.193 C 
ATOM      8  O2  UNK A          63.260   6.928  49.728  0.00  0.00    -0.289 OA
ATOM      9  C8  UNK A          63.704   9.109  49.404  0.00  0.00     0.087 C 
ATOM     10  O3  UNK A          62.034  10.818  49.750  0.00  0.00    -0.309 OA
ATOM     11  C9  UNK A          63.297  10.428  49.427  0.00  0.00     0.093 C 
ENDROOT
BRANCH   1  12
ATOM     12  O1  UNK A          61.578   6.509  51.927  0.00  0.00    -0.360 OA
ATOM     13  H1  UNK A          62.264   6.260  51.273  0.00  0.00     0.218 HD
ENDBRANCH   1  12
BRANCH   3  14
ATOM     14  O10 UNK A          58.965  10.248  53.318  0.00  0.00    -0.361 OA
ATOM     15  H10 UNK A          59.402  10.318  54.189  0.00  0.00     0.218 HD
ENDBRANCH   3  14
BRANCH  11  16
ATOM     16  C10 UNK A          64.334  11.447  49.546  0.00  0.00     0.006 A 
ATOM     17  C11 UNK A          64.609  12.100  50.759  0.00  0.00     0.013 A 
ATOM     18  C12 UNK A          65.591  13.113  50.799  0.00  0.00     0.035 A 
ATOM     19  C13 UNK A          66.323  13.448  49.641  0.00  0.00     0.082 A 
ATOM     20  C14 UNK A          66.129  12.707  48.462  0.00  0.00     0.035 A 
ATOM     21  C15 UNK A          65.126  11.726  48.411  0.00  0.00     0.013 A 
BRANCH  19  22
ATOM     22  O4  UNK A          67.060  14.625  49.626  0.00  0.00    -0.305 OA
BRANCH  22  23
ATOM     23  C16 UNK A          66.395  15.760  49.197  0.00  0.00     0.143 C 
ATOM     24  C17 UNK A          65.772  16.631  50.128  0.00  0.00     0.119 C 
ATOM     25  C21 UNK A          64.966  17.697  49.651  0.00  0.00     0.086 C 
ATOM     26  C20 UNK A          64.706  17.758  48.277  0.00  0.00     0.099 C 
ATOM     27  C22 UNK A          64.497  18.835  50.479  0.00  0.00     0.193 C 
ATOM     28  C19 UNK A          65.378  16.967  47.354  0.00  0.00     0.071 C 
ATOM     29  O6  UNK A          63.902  18.735  47.807  0.00  0.00    -0.309 OA
ATOM     30  C18 UNK A          66.271  16.000  47.808  0.00  0.00     0.108 C 
ATOM     31  C24 UNK A          64.200  19.945  48.351  0.00  0.00     0.093 C 
ATOM     32  C25 UNK A          64.491  20.988  47.492  0.00  0.00     0.006 A 
ATOM     33  C23 UNK A          64.320  20.003  49.736  0.00  0.00     0.087 C 
ATOM     34  C26 UNK A          64.952  22.204  47.931  0.00  0.00     0.015 A 
ATOM     35  C30 UNK A          64.397  20.744  46.140  0.00  0.00     0.015 A 
ATOM     36  C27 UNK A          65.352  23.152  47.002  0.00  0.00     0.053 A 
ATOM     37  C28 UNK A          65.286  22.895  45.659  0.00  0.00     0.178 A 
ATOM     38  C29 UNK A          64.799  21.697  45.228  0.00  0.00     0.053 A 
ATOM     39  O9  UNK A          65.667  23.729  44.844  0.00  0.00    -0.290 OA
ATOM     40  O8  UNK A          64.530  18.897  51.704  0.00  0.00    -0.289 OA
BRANCH  24  41
ATOM     41  O7  UNK A          65.975  16.454  51.471  0.00  0.00    -0.357 OA
ATOM     42  H7  UNK A          66.938  16.412  51.642  0.00  0.00     0.218 HD
ENDBRANCH  24  41
BRANCH  30  43
ATOM     43  O5  UNK A          67.008  15.335  46.866  0.00  0.00    -0.358 OA
ATOM     44  H5  UNK A          67.954  15.457  47.066  0.00  0.00     0.218 HD
ENDBRANCH  30  43
ENDBRANCH  22  23
ENDBRANCH  19  22
ENDBRANCH  11  16
TORSDOF 7
ENDMDL
MODEL 3
REMARK VINA RESULT:      -7.5      2.492     11.823
REMARK  7 active torsions:
REMARK  status: ('A' for Active; 'I' for Inactive)
REMARK    1  A    between atoms: C1_1  and  O1_7 
REMARK    2  A    between atoms: C3_3  and  O10_40 
REMARK    3  A    between atoms: C9_12  and  C10_13 
REMARK    4  A    between atoms: C13_16  and  O4_19 
REMARK    5  A    between atoms: O4_19  and  C16_20 
REMARK    6  A    between atoms: C17_21  and  O7_29 
REMARK    7  A    between atoms: C18_22  and  O5_24 
ROOT
ATOM      1  C1  UNK A          67.337  10.635  50.024  0.00  0.00     0.088 A 
ATOM      2  C2  UNK A          66.256   9.804  49.690  0.00  0.00     0.067 A 
ATOM      3  C3  UNK A          65.416  10.111  48.610  0.00  0.00     0.076 A 
ATOM      4  C4  UNK A          65.645  11.267  47.853  0.00  0.00     0.068 A 
ATOM      5  C5  UNK A          66.688  12.130  48.216  0.00  0.00     0.098 A 
ATOM      6  C6  UNK A          67.566  11.823  49.284  0.00  0.00     0.083 A 
ATOM      7  C7  UNK A          68.579  12.808  49.710  0.00  0.00     0.193 C 
ATOM      8  O2  UNK A          69.491  12.646  50.516  0.00  0.00    -0.289 OA
ATOM      9  C8  UNK A          68.252  14.094  49.321  0.00  0.00     0.087 C 
ATOM     10  O3  UNK A          66.720  13.354  47.608  0.00  0.00    -0.309 OA
ATOM     11  C9  UNK A          67.302  14.335  48.349  0.00  0.00     0.093 C 
ENDROOT
BRANCH   1  12
ATOM     12  O1  UNK A          68.084  10.302  51.121  0.00  0.00    -0.360 OA
ATOM     13  H1  UNK A          67.658   9.548  51.581  0.00  0.00     0.218 HD
ENDBRANCH   1  12
BRANCH   3  14
ATOM     14  O10 UNK A          64.340   9.319  48.336  0.00  0.00    -0.361 OA
ATOM     15  H10 UNK A          64.655   8.476  47.956  0.00  0.00     0.218 HD
ENDBRANCH   3  14
BRANCH  11  16
ATOM     16  C10 UNK A          66.580  15.602  48.418  0.00  0.00     0.006 A 
ATOM     17  C11 UNK A          66.527  16.372  49.591  0.00  0.00     0.013 A 
ATOM     18  C12 UNK A          65.771  17.563  49.609  0.00  0.00     0.035 A 
ATOM     19  C13 UNK A          65.100  18.005  48.451  0.00  0.00     0.082 A 
ATOM     20  C14 UNK A          65.258  17.295  47.248  0.00  0.00     0.035 A 
ATOM     21  C15 UNK A          65.978  16.090  47.238  0.00  0.00     0.013 A 
BRANCH  19  22
ATOM     22  O4  UNK A          64.138  19.000  48.566  0.00  0.00    -0.305 OA
BRANCH  22  23
ATOM     23  C16 UNK A          64.586  20.303  48.447  0.00  0.00     0.143 C 
ATOM     24  C17 UNK A          64.709  20.916  47.173  0.00  0.00     0.119 C 
ATOM     25  C21 UNK A          65.318  22.193  47.071  0.00  0.00     0.086 C 
ATOM     26  C20 UNK A          65.902  22.734  48.222  0.00  0.00     0.099 C 
ATOM     27  C22 UNK A          65.257  23.064  45.871  0.00  0.00     0.193 C 
ATOM     28  C19 UNK A          65.712  22.187  49.485  0.00  0.00     0.071 C 
ATOM     29  O6  UNK A          66.531  23.927  48.138  0.00  0.00    -0.309 OA
ATOM     30  C18 UNK A          65.003  20.995  49.610  0.00  0.00     0.108 C 
ATOM     31  C24 UNK A          65.809  24.832  47.426  0.00  0.00     0.093 C 
ATOM     32  C25 UNK A          65.500  26.036  48.031  0.00  0.00     0.006 A 
ATOM     33  C23 UNK A          65.323  24.421  46.188  0.00  0.00     0.087 C 
ATOM     34  C26 UNK A          64.652  26.955  47.466  0.00  0.00     0.015 A 
ATOM     35  C30 UNK A          65.999  26.259  49.295  0.00  0.00     0.015 A 
ATOM     36  C27 UNK A          64.284  28.075  48.195  0.00  0.00     0.053 A 
ATOM     37  C28 UNK A          64.758  28.278  49.462  0.00  0.00     0.178 A 
ATOM     38  C29 UNK A          65.623  27.377  50.008  0.00  0.00     0.053 A 
ATOM     39  O9  UNK A          64.406  29.258  50.112  0.00  0.00    -0.290 OA
ATOM     40  O8  UNK A          64.893  22.721  44.751  0.00  0.00    -0.289 OA
BRANCH  24  41
ATOM     41  O7  UNK A          64.214  20.285  46.062  0.00  0.00    -0.357 OA
ATOM     42  H7  UNK A          63.239  20.249  46.128  0.00  0.00     0.218 HD
ENDBRANCH  24  41
BRANCH  30  43
ATOM     43  O5  UNK A          64.726  20.560  50.877  0.00  0.00    -0.358 OA
ATOM     44  H5  UNK A          63.978  19.936  50.838  0.00  0.00     0.218 HD
ENDBRANCH  30  43
ENDBRANCH  22  23
ENDBRANCH  19  22
ENDBRANCH  11  16
TORSDOF 7
ENDMDL
MODEL 4
REMARK VINA RESULT:      -7.4      3.608      6.289
REMARK  7 active torsions:
REMARK  status: ('A' for Active; 'I' for Inactive)
REMARK    1  A    between atoms: C1_1  and  O1_7 
REMARK    2  A    between atoms: C3_3  and  O10_40 
REMARK    3  A    between atoms: C9_12  and  C10_13 
REMARK    4  A    between atoms: C13_16  and  O4_19 
REMARK    5  A    between atoms: O4_19  and  C16_20 
REMARK    6  A    between atoms: C17_21  and  O7_29 
REMARK    7  A    between atoms: C18_22  and  O5_24 
ROOT
ATOM      1  C1  UNK A          68.120  27.424  47.811  0.00  0.00     0.088 A 
ATOM      2  C2  UNK A          69.381  27.277  47.210  0.00  0.00     0.067 A 
ATOM      3  C3  UNK A          69.519  26.632  45.973  0.00  0.00     0.076 A 
ATOM      4  C4  UNK A          68.391  26.113  45.325  0.00  0.00     0.068 A 
ATOM      5  C5  UNK A          67.139  26.206  45.947  0.00  0.00     0.098 A 
ATOM      6  C6  UNK A          66.973  26.880  47.180  0.00  0.00     0.083 A 
ATOM      7  C7  UNK A          65.662  26.859  47.861  0.00  0.00     0.193 C 
ATOM      8  O2  UNK A          65.321  27.496  48.852  0.00  0.00    -0.289 OA
ATOM      9  C8  UNK A          64.876  25.800  47.443  0.00  0.00     0.087 C 
ATOM     10  O3  UNK A          66.119  25.478  45.399  0.00  0.00    -0.309 OA
ATOM     11  C9  UNK A          65.156  25.105  46.284  0.00  0.00     0.093 C 
ENDROOT
BRANCH   1  12
ATOM     12  O1  UNK A          68.065  28.019  49.043  0.00  0.00    -0.360 OA
ATOM     13  H1  UNK A          67.465  28.792  48.997  0.00  0.00     0.218 HD
ENDBRANCH   1  12
BRANCH   3  14
ATOM     14  O10 UNK A          70.758  26.453  45.432  0.00  0.00    -0.361 OA
ATOM     15  H10 UNK A          71.431  26.762  46.069  0.00  0.00     0.218 HD
ENDBRANCH   3  14
BRANCH  11  16
ATOM     16  C10 UNK A          64.729  23.711  46.219  0.00  0.00     0.006 A 
ATOM     17  C11 UNK A          63.452  23.338  45.768  0.00  0.00     0.013 A 
ATOM     18  C12 UNK A          63.080  21.977  45.777  0.00  0.00     0.035 A 
ATOM     19  C13 UNK A          63.992  20.987  46.198  0.00  0.00     0.082 A 
ATOM     20  C14 UNK A          65.307  21.355  46.531  0.00  0.00     0.035 A 
ATOM     21  C15 UNK A          65.666  22.712  46.559  0.00  0.00     0.013 A 
BRANCH  19  22
ATOM     22  O4  UNK A          63.521  19.710  46.476  0.00  0.00    -0.305 OA
BRANCH  22  23
ATOM     23  C16 UNK A          63.970  19.133  47.650  0.00  0.00     0.143 C 
ATOM     24  C17 UNK A          63.556  19.635  48.911  0.00  0.00     0.119 C 
ATOM     25  C21 UNK A          64.155  19.127  50.093  0.00  0.00     0.086 C 
ATOM     26  C20 UNK A          65.234  18.247  49.954  0.00  0.00     0.099 C 
ATOM     27  C22 UNK A          63.631  19.345  51.464  0.00  0.00     0.193 C 
ATOM     28  C19 UNK A          65.587  17.683  48.735  0.00  0.00     0.071 C 
ATOM     29  O6  UNK A          65.850  17.788  51.065  0.00  0.00    -0.309 OA
ATOM     30  C18 UNK A          64.917  18.083  47.581  0.00  0.00     0.108 C 
ATOM     31  C24 UNK A          64.959  17.401  52.017  0.00  0.00     0.093 C 
ATOM     32  C25 UNK A          65.052  16.111  52.505  0.00  0.00     0.006 A 
ATOM     33  C23 UNK A          63.940  18.295  52.330  0.00  0.00     0.087 C 
ATOM     34  C26 UNK A          64.116  15.569  53.350  0.00  0.00     0.015 A 
ATOM     35  C30 UNK A          66.080  15.325  52.035  0.00  0.00     0.015 A 
ATOM     36  C27 UNK A          64.204  14.227  53.686  0.00  0.00     0.053 A 
ATOM     37  C28 UNK A          65.210  13.441  53.193  0.00  0.00     0.178 A 
ATOM     38  C29 UNK A          66.154  13.991  52.378  0.00  0.00     0.053 A 
ATOM     39  O9  UNK A          65.265  12.247  53.473  0.00  0.00    -0.290 OA
ATOM     40  O8  UNK A          62.778  20.164  51.787  0.00  0.00    -0.289 OA
BRANCH  24  41
ATOM     41  O7  UNK A          62.568  20.582  48.978  0.00  0.00    -0.357 OA
ATOM     42  H7  UNK A          61.795  20.268  48.467  0.00  0.00     0.218 HD
ENDBRANCH  24  41
BRANCH  30  43
ATOM     43  O5  UNK A          65.204  17.411  46.425  0.00  0.00    -0.358 OA
ATOM     44  H5  UNK A          66.161  17.228  46.399  0.00  0.00     0.218 HD
ENDBRANCH  30  43
ENDBRANCH  22  23
ENDBRANCH  19  22
ENDBRANCH  11  16
TORSDOF 7
ENDMDL
MODEL 5
REMARK VINA RESULT:      -7.4      6.884     11.829
REMARK  7 active torsions:
REMARK  status: ('A' for Active; 'I' for Inactive)
REMARK    1  A    between atoms: C1_1  and  O1_7 
REMARK    2  A    between atoms: C3_3  and  O10_40 
REMARK    3  A    between atoms: C9_12  and  C10_13 
REMARK    4  A    between atoms: C13_16  and  O4_19 
REMARK    5  A    between atoms: O4_19  and  C16_20 
REMARK    6  A    between atoms: C17_21  and  O7_29 
REMARK    7  A    between atoms: C18_22  and  O5_24 
ROOT
ATOM      1  C1  UNK A          65.870  32.543  54.938  0.00  0.00     0.088 A 
ATOM      2  C2  UNK A          65.907  33.909  54.613  0.00  0.00     0.067 A 
ATOM      3  C3  UNK A          65.163  34.415  53.538  0.00  0.00     0.076 A 
ATOM      4  C4  UNK A          64.377  33.552  52.764  0.00  0.00     0.068 A 
ATOM      5  C5  UNK A          64.381  32.180  53.048  0.00  0.00     0.098 A 
ATOM      6  C6  UNK A          65.100  31.653  54.147  0.00  0.00     0.083 A 
ATOM      7  C7  UNK A          65.174  30.192  54.347  0.00  0.00     0.193 C 
ATOM      8  O2  UNK A          65.635  29.589  55.311  0.00  0.00    -0.289 OA
ATOM      9  C8  UNK A          64.917  29.493  53.182  0.00  0.00     0.087 C 
ATOM     10  O3  UNK A          63.799  31.355  52.125  0.00  0.00    -0.309 OA
ATOM     11  C9  UNK A          64.311  30.095  52.097  0.00  0.00     0.093 C 
ENDROOT
BRANCH   1  12
ATOM     12  O1  UNK A          66.661  32.110  55.967  0.00  0.00    -0.360 OA
ATOM     13  H1  UNK A          66.142  31.501  56.534  0.00  0.00     0.218 HD
ENDBRANCH   1  12
BRANCH   3  14
ATOM     14  O10 UNK A          65.255  35.735  53.206  0.00  0.00    -0.361 OA
ATOM     15  H10 UNK A          64.531  35.958  52.589  0.00  0.00     0.218 HD
ENDBRANCH   3  14
BRANCH  11  16
ATOM     16  C10 UNK A          64.617  29.556  50.776  0.00  0.00     0.006 A 
ATOM     17  C11 UNK A          63.823  28.572  50.164  0.00  0.00     0.013 A 
ATOM     18  C12 UNK A          64.199  28.054  48.907  0.00  0.00     0.035 A 
ATOM     19  C13 UNK A          65.343  28.543  48.243  0.00  0.00     0.082 A 
ATOM     20  C14 UNK A          66.063  29.612  48.803  0.00  0.00     0.035 A 
ATOM     21  C15 UNK A          65.713  30.102  50.071  0.00  0.00     0.013 A 
BRANCH  19  22
ATOM     22  O4  UNK A          65.856  27.829  47.167  0.00  0.00    -0.305 OA
BRANCH  22  23
ATOM     23  C16 UNK A          65.814  26.451  47.269  0.00  0.00     0.143 C 
ATOM     24  C17 UNK A          66.803  25.747  48.005  0.00  0.00     0.119 C 
ATOM     25  C21 UNK A          66.825  24.329  47.961  0.00  0.00     0.086 C 
ATOM     26  C20 UNK A          65.951  23.687  47.077  0.00  0.00     0.099 C 
ATOM     27  C22 UNK A          67.603  23.469  48.888  0.00  0.00     0.193 C 
ATOM     28  C19 UNK A          64.925  24.357  46.423  0.00  0.00     0.071 C 
ATOM     29  O6  UNK A          65.987  22.341  46.984  0.00  0.00    -0.309 OA
ATOM     30  C18 UNK A          64.817  25.739  46.561  0.00  0.00     0.108 C 
ATOM     31  C24 UNK A          66.047  21.748  48.206  0.00  0.00     0.093 C 
ATOM     32  C25 UNK A          65.076  20.815  48.522  0.00  0.00     0.006 A 
ATOM     33  C23 UNK A          67.005  22.225  49.095  0.00  0.00     0.087 C 
ATOM     34  C26 UNK A          64.950  20.271  49.775  0.00  0.00     0.015 A 
ATOM     35  C30 UNK A          64.150  20.507  47.550  0.00  0.00     0.015 A 
ATOM     36  C27 UNK A          63.869  19.448  50.051  0.00  0.00     0.053 A 
ATOM     37  C28 UNK A          62.935  19.167  49.091  0.00  0.00     0.178 A 
ATOM     38  C29 UNK A          63.080  19.687  47.839  0.00  0.00     0.053 A 
ATOM     39  O9  UNK A          61.966  18.460  49.351  0.00  0.00    -0.290 OA
ATOM     40  O8  UNK A          68.495  23.844  49.640  0.00  0.00    -0.289 OA
BRANCH  24  41
ATOM     41  O7  UNK A          67.706  26.438  48.769  0.00  0.00    -0.357 OA
ATOM     42  H7  UNK A          68.606  26.273  48.421  0.00  0.00     0.218 HD
ENDBRANCH  24  41
BRANCH  30  43
ATOM     43  O5  UNK A          63.719  26.340  46.009  0.00  0.00    -0.358 OA
ATOM     44  H5  UNK A          63.473  27.106  46.559  0.00  0.00     0.218 HD
ENDBRANCH  30  43
ENDBRANCH  22  23
ENDBRANCH  19  22
ENDBRANCH  11  16
TORSDOF 7
ENDMDL
MODEL 6
REMARK VINA RESULT:      -7.2      6.200     11.189
REMARK  7 active torsions:
REMARK  status: ('A' for Active; 'I' for Inactive)
REMARK    1  A    between atoms: C1_1  and  O1_7 
REMARK    2  A    between atoms: C3_3  and  O10_40 
REMARK    3  A    between atoms: C9_12  and  C10_13 
REMARK    4  A    between atoms: C13_16  and  O4_19 
REMARK    5  A    between atoms: O4_19  and  C16_20 
REMARK    6  A    between atoms: C17_21  and  O7_29 
REMARK    7  A    between atoms: C18_22  and  O5_24 
ROOT
ATOM      1  C1  UNK A          65.336  32.195  54.220  0.00  0.00     0.088 A 
ATOM      2  C2  UNK A          65.335  33.519  53.750  0.00  0.00     0.067 A 
ATOM      3  C3  UNK A          64.743  33.847  52.522  0.00  0.00     0.076 A 
ATOM      4  C4  UNK A          64.152  32.846  51.740  0.00  0.00     0.068 A 
ATOM      5  C5  UNK A          64.200  31.516  52.178  0.00  0.00     0.098 A 
ATOM      6  C6  UNK A          64.765  31.167  53.428  0.00  0.00     0.083 A 
ATOM      7  C7  UNK A          64.901  29.746  53.804  0.00  0.00     0.193 C 
ATOM      8  O2  UNK A          65.239  29.286  54.890  0.00  0.00    -0.289 OA
ATOM      9  C8  UNK A          64.884  28.912  52.701  0.00  0.00     0.087 C 
ATOM     10  O3  UNK A          63.832  30.554  51.278  0.00  0.00    -0.309 OA
ATOM     11  C9  UNK A          64.424  29.345  51.474  0.00  0.00     0.093 C 
ENDROOT
BRANCH   1  12
ATOM     12  O1  UNK A          65.976  31.939  55.402  0.00  0.00    -0.360 OA
ATOM     13  H1  UNK A          66.253  32.788  55.806  0.00  0.00     0.218 HD
ENDBRANCH   1  12
BRANCH   3  14
ATOM     14  O10 UNK A          64.800  35.129  52.058  0.00  0.00    -0.361 OA
ATOM     15  H10 UNK A          64.758  35.115  51.082  0.00  0.00     0.218 HD
ENDBRANCH   3  14
BRANCH  11  16
ATOM     16  C10 UNK A          64.976  28.700  50.286  0.00  0.00     0.006 A 
ATOM     17  C11 UNK A          64.160  28.129  49.296  0.00  0.00     0.013 A 
ATOM     18  C12 UNK A          64.754  27.475  48.196  0.00  0.00     0.035 A 
ATOM     19  C13 UNK A          66.157  27.424  48.063  0.00  0.00     0.082 A 
ATOM     20  C14 UNK A          66.964  28.103  48.992  0.00  0.00     0.035 A 
ATOM     21  C15 UNK A          66.376  28.721  50.108  0.00  0.00     0.013 A 
BRANCH  19  22
ATOM     22  O4  UNK A          66.717  26.539  47.151  0.00  0.00    -0.305 OA
BRANCH  22  23
ATOM     23  C16 UNK A          66.390  25.205  47.310  0.00  0.00     0.143 C 
ATOM     24  C17 UNK A          65.407  24.595  46.488  0.00  0.00     0.119 C 
ATOM     25  C21 UNK A          64.980  23.273  46.777  0.00  0.00     0.086 C 
ATOM     26  C20 UNK A          65.449  22.676  47.953  0.00  0.00     0.099 C 
ATOM     27  C22 UNK A          64.189  22.421  45.855  0.00  0.00     0.193 C 
ATOM     28  C19 UNK A          66.473  23.226  48.713  0.00  0.00     0.071 C 
ATOM     29  O6  UNK A          65.019  21.437  48.273  0.00  0.00    -0.309 OA
ATOM     30  C18 UNK A          66.989  24.471  48.362  0.00  0.00     0.108 C 
ATOM     31  C24 UNK A          65.035  20.600  47.202  0.00  0.00     0.093 C 
ATOM     32  C25 UNK A          65.748  19.420  47.312  0.00  0.00     0.006 A 
ATOM     33  C23 UNK A          64.443  21.060  46.030  0.00  0.00     0.087 C 
ATOM     34  C26 UNK A          65.959  18.579  46.248  0.00  0.00     0.015 A 
ATOM     35  C30 UNK A          66.341  19.146  48.524  0.00  0.00     0.015 A 
ATOM     36  C27 UNK A          66.797  17.486  46.405  0.00  0.00     0.053 A 
ATOM     37  C28 UNK A          67.409  17.234  47.603  0.00  0.00     0.178 A 
ATOM     38  C29 UNK A          67.174  18.056  48.664  0.00  0.00     0.053 A 
ATOM     39  O9  UNK A          68.173  16.280  47.726  0.00  0.00    -0.290 OA
ATOM     40  O8  UNK A          63.603  22.803  44.847  0.00  0.00    -0.289 OA
BRANCH  24  41
ATOM     41  O7  UNK A          64.902  25.274  45.411  0.00  0.00    -0.357 OA
ATOM     42  H7  UNK A          64.822  26.221  45.644  0.00  0.00     0.218 HD
ENDBRANCH  24  41
BRANCH  30  43
ATOM     43  O5  UNK A          68.081  24.915  49.055  0.00  0.00    -0.358 OA
ATOM     44  H5  UNK A          68.726  25.281  48.422  0.00  0.00     0.218 HD
ENDBRANCH  30  43
ENDBRANCH  22  23
ENDBRANCH  19  22
ENDBRANCH  11  16
TORSDOF 7
ENDMDL
MODEL 7
REMARK VINA RESULT:      -6.8     15.842     19.466
REMARK  7 active torsions:
REMARK  status: ('A' for Active; 'I' for Inactive)
REMARK    1  A    between atoms: C1_1  and  O1_7 
REMARK    2  A    between atoms: C3_3  and  O10_40 
REMARK    3  A    between atoms: C9_12  and  C10_13 
REMARK    4  A    between atoms: C13_16  and  O4_19 
REMARK    5  A    between atoms: O4_19  and  C16_20 
REMARK    6  A    between atoms: C17_21  and  O7_29 
REMARK    7  A    between atoms: C18_22  and  O5_24 
ROOT
ATOM      1  C1  UNK A          50.499  20.959  61.319  0.00  0.00     0.088 A 
ATOM      2  C2  UNK A          51.741  21.131  60.687  0.00  0.00     0.067 A 
ATOM      3  C3  UNK A          51.824  21.674  59.397  0.00  0.00     0.076 A 
ATOM      4  C4  UNK A          50.657  22.044  58.717  0.00  0.00     0.068 A 
ATOM      5  C5  UNK A          49.412  21.822  59.320  0.00  0.00     0.098 A 
ATOM      6  C6  UNK A          49.307  21.303  60.633  0.00  0.00     0.083 A 
ATOM      7  C7  UNK A          47.980  20.976  61.192  0.00  0.00     0.193 C 
ATOM      8  O2  UNK A          47.710  20.652  62.344  0.00  0.00    -0.289 OA
ATOM      9  C8  UNK A          47.032  20.782  60.204  0.00  0.00     0.087 C 
ATOM     10  O3  UNK A          48.305  21.969  58.530  0.00  0.00    -0.309 OA
ATOM     11  C9  UNK A          47.240  21.212  58.908  0.00  0.00     0.093 C 
ENDROOT
BRANCH   1  12
ATOM     12  O1  UNK A          50.488  20.375  62.557  0.00  0.00    -0.360 OA
ATOM     13  H1  UNK A          51.190  19.692  62.594  0.00  0.00     0.218 HD
ENDBRANCH   1  12
BRANCH   3  14
ATOM     14  O10 UNK A          53.036  21.783  58.780  0.00  0.00    -0.361 OA
ATOM     15  H10 UNK A          53.740  21.756  59.456  0.00  0.00     0.218 HD
ENDBRANCH   3  14
BRANCH  11  16
ATOM     16  C10 UNK A          46.561  20.482  57.843  0.00  0.00     0.006 A 
ATOM     17  C11 UNK A          45.363  19.781  58.059  0.00  0.00     0.013 A 
ATOM     18  C12 UNK A          44.781  19.051  57.001  0.00  0.00     0.035 A 
ATOM     19  C13 UNK A          45.371  19.051  55.721  0.00  0.00     0.082 A 
ATOM     20  C14 UNK A          46.500  19.853  55.480  0.00  0.00     0.035 A 
ATOM     21  C15 UNK A          47.102  20.548  56.541  0.00  0.00     0.013 A 
BRANCH  19  22
ATOM     22  O4  UNK A          44.959  18.109  54.787  0.00  0.00    -0.305 OA
BRANCH  22  23
ATOM     23  C16 UNK A          45.859  17.101  54.494  0.00  0.00     0.143 C 
ATOM     24  C17 UNK A          46.580  17.104  53.272  0.00  0.00     0.119 C 
ATOM     25  C21 UNK A          47.376  15.980  52.931  0.00  0.00     0.086 C 
ATOM     26  C20 UNK A          47.303  14.851  53.755  0.00  0.00     0.099 C 
ATOM     27  C22 UNK A          48.390  15.962  51.847  0.00  0.00     0.193 C 
ATOM     28  C19 UNK A          46.674  14.869  54.993  0.00  0.00     0.071 C 
ATOM     29  O6  UNK A          48.014  13.752  53.423  0.00  0.00    -0.309 OA
ATOM     30  C18 UNK A          45.994  16.017  55.395  0.00  0.00     0.108 C 
ATOM     31  C24 UNK A          49.284  14.063  53.048  0.00  0.00     0.093 C 
ATOM     32  C25 UNK A          50.326  13.451  53.720  0.00  0.00     0.006 A 
ATOM     33  C23 UNK A          49.435  15.075  52.105  0.00  0.00     0.087 C 
ATOM     34  C26 UNK A          51.639  13.803  53.530  0.00  0.00     0.015 A 
ATOM     35  C30 UNK A          50.004  12.522  54.683  0.00  0.00     0.015 A 
ATOM     36  C27 UNK A          52.614  13.241  54.338  0.00  0.00     0.053 A 
ATOM     37  C28 UNK A          52.287  12.340  55.315  0.00  0.00     0.178 A 
ATOM     38  C29 UNK A          50.985  11.972  55.480  0.00  0.00     0.053 A 
ATOM     39  O9  UNK A          53.153  11.868  56.045  0.00  0.00    -0.290 OA
ATOM     40  O8  UNK A          48.514  16.804  50.964  0.00  0.00    -0.289 OA
BRANCH  24  41
ATOM     41  O7  UNK A          46.524  18.198  52.450  0.00  0.00    -0.357 OA
ATOM     42  H7  UNK A          46.167  18.955  52.956  0.00  0.00     0.218 HD
ENDBRANCH  24  41
BRANCH  30  43
ATOM     43  O5  UNK A          45.502  16.040  56.671  0.00  0.00    -0.358 OA
ATOM     44  H5  UNK A          46.085  16.593  57.222  0.00  0.00     0.218 HD
ENDBRANCH  30  43
ENDBRANCH  22  23
ENDBRANCH  19  22
ENDBRANCH  11  16
TORSDOF 7
ENDMDL
MODEL 8
REMARK VINA RESULT:      -6.6     14.653     16.499
REMARK  7 active torsions:
REMARK  status: ('A' for Active; 'I' for Inactive)
REMARK    1  A    between atoms: C1_1  and  O1_7 
REMARK    2  A    between atoms: C3_3  and  O10_40 
REMARK    3  A    between atoms: C9_12  and  C10_13 
REMARK    4  A    between atoms: C13_16  and  O4_19 
REMARK    5  A    between atoms: O4_19  and  C16_20 
REMARK    6  A    between atoms: C17_21  and  O7_29 
REMARK    7  A    between atoms: C18_22  and  O5_24 
ROOT
ATOM      1  C1  UNK A          74.762  15.770  35.513  0.00  0.00     0.088 A 
ATOM      2  C2  UNK A          74.392  16.279  34.258  0.00  0.00     0.067 A 
ATOM      3  C3  UNK A          73.138  15.986  33.702  0.00  0.00     0.076 A 
ATOM      4  C4  UNK A          72.240  15.165  34.397  0.00  0.00     0.068 A 
ATOM      5  C5  UNK A          72.627  14.608  35.623  0.00  0.00     0.098 A 
ATOM      6  C6  UNK A          73.875  14.916  36.216  0.00  0.00     0.083 A 
ATOM      7  C7  UNK A          74.296  14.223  37.450  0.00  0.00     0.193 C 
ATOM      8  O2  UNK A          75.271  14.468  38.153  0.00  0.00    -0.289 OA
ATOM      9  C8  UNK A          73.627  13.026  37.628  0.00  0.00     0.087 C 
ATOM     10  O3  UNK A          71.823  13.630  36.140  0.00  0.00    -0.309 OA
ATOM     11  C9  UNK A          72.469  12.734  36.934  0.00  0.00     0.093 C 
ENDROOT
BRANCH   1  12
ATOM     12  O1  UNK A          76.020  16.055  35.971  0.00  0.00    -0.360 OA
ATOM     13  H1  UNK A          76.004  16.087  36.951  0.00  0.00     0.218 HD
ENDBRANCH   1  12
BRANCH   3  14
ATOM     14  O10 UNK A          72.819  16.446  32.459  0.00  0.00    -0.361 OA
ATOM     15  H10 UNK A          73.078  15.777  31.797  0.00  0.00     0.218 HD
ENDBRANCH   3  14
BRANCH  11  16
ATOM     16  C10 UNK A          72.175  11.326  36.685  0.00  0.00     0.006 A 
ATOM     17  C11 UNK A          71.586  10.500  37.656  0.00  0.00     0.013 A 
ATOM     18  C12 UNK A          71.372   9.134  37.374  0.00  0.00     0.035 A 
ATOM     19  C13 UNK A          71.709   8.602  36.112  0.00  0.00     0.082 A 
ATOM     20  C14 UNK A          72.183   9.459  35.104  0.00  0.00     0.035 A 
ATOM     21  C15 UNK A          72.433  10.810  35.397  0.00  0.00     0.013 A 
BRANCH  19  22
ATOM     22  O4  UNK A          71.767   7.223  35.955  0.00  0.00    -0.305 OA
BRANCH  22  23
ATOM     23  C16 UNK A          70.568   6.584  35.697  0.00  0.00     0.143 C 
ATOM     24  C17 UNK A          70.049   6.518  34.378  0.00  0.00     0.119 C 
ATOM     25  C21 UNK A          68.746   5.998  34.167  0.00  0.00     0.086 C 
ATOM     26  C20 UNK A          67.970   5.700  35.293  0.00  0.00     0.099 C 
ATOM     27  C22 UNK A          68.197   5.608  32.845  0.00  0.00     0.193 C 
ATOM     28  C19 UNK A          68.496   5.677  36.579  0.00  0.00     0.071 C 
ATOM     29  O6  UNK A          66.709   5.249  35.118  0.00  0.00    -0.309 OA
ATOM     30  C18 UNK A          69.818   6.066  36.780  0.00  0.00     0.108 C 
ATOM     31  C24 UNK A          66.641   4.296  34.150  0.00  0.00     0.093 C 
ATOM     32  C25 UNK A          66.088   3.073  34.483  0.00  0.00     0.006 A 
ATOM     33  C23 UNK A          67.256   4.582  32.936  0.00  0.00     0.087 C 
ATOM     34  C26 UNK A          66.107   1.994  33.635  0.00  0.00     0.015 A 
ATOM     35  C30 UNK A          65.587   2.927  35.758  0.00  0.00     0.015 A 
ATOM     36  C27 UNK A          65.656   0.766  34.092  0.00  0.00     0.053 A 
ATOM     37  C28 UNK A          65.187   0.617  35.369  0.00  0.00     0.178 A 
ATOM     38  C29 UNK A          65.143   1.698  36.198  0.00  0.00     0.053 A 
ATOM     39  O9  UNK A          64.816  -0.480  35.774  0.00  0.00    -0.290 OA
ATOM     40  O8  UNK A          68.678   5.894  31.753  0.00  0.00    -0.289 OA
BRANCH  24  41
ATOM     41  O7  UNK A          70.818   6.929  33.321  0.00  0.00    -0.357 OA
ATOM     42  H7  UNK A          71.397   7.660  33.618  0.00  0.00     0.218 HD
ENDBRANCH  24  41
BRANCH  30  43
ATOM     43  O5  UNK A          70.334   5.905  38.037  0.00  0.00    -0.358 OA
ATOM     44  H5  UNK A          71.022   5.215  38.006  0.00  0.00     0.218 HD
ENDBRANCH  30  43
ENDBRANCH  22  23
ENDBRANCH  19  22
ENDBRANCH  11  16
TORSDOF 7
ENDMDL
MODEL 9
REMARK VINA RESULT:      -6.6     12.547     14.601
REMARK  7 active torsions:
REMARK  status: ('A' for Active; 'I' for Inactive)
REMARK    1  A    between atoms: C1_1  and  O1_7 
REMARK    2  A    between atoms: C3_3  and  O10_40 
REMARK    3  A    between atoms: C9_12  and  C10_13 
REMARK    4  A    between atoms: C13_16  and  O4_19 
REMARK    5  A    between atoms: O4_19  and  C16_20 
REMARK    6  A    between atoms: C17_21  and  O7_29 
REMARK    7  A    between atoms: C18_22  and  O5_24 
ROOT
ATOM      1  C1  UNK A          72.402  12.668  34.092  0.00  0.00     0.088 A 
ATOM      2  C2  UNK A          71.683  13.875  34.086  0.00  0.00     0.067 A 
ATOM      3  C3  UNK A          71.450  14.581  35.274  0.00  0.00     0.076 A 
ATOM      4  C4  UNK A          71.927  14.079  36.492  0.00  0.00     0.068 A 
ATOM      5  C5  UNK A          72.595  12.847  36.511  0.00  0.00     0.098 A 
ATOM      6  C6  UNK A          72.868  12.133  35.320  0.00  0.00     0.083 A 
ATOM      7  C7  UNK A          73.470  10.787  35.389  0.00  0.00     0.193 C 
ATOM      8  O2  UNK A          73.888  10.103  34.459  0.00  0.00    -0.289 OA
ATOM      9  C8  UNK A          73.275  10.192  36.622  0.00  0.00     0.087 C 
ATOM     10  O3  UNK A          72.824  12.285  37.737  0.00  0.00    -0.309 OA
ATOM     11  C9  UNK A          72.898  10.927  37.728  0.00  0.00     0.093 C 
ENDROOT
BRANCH   1  12
ATOM     12  O1  UNK A          72.548  12.006  32.903  0.00  0.00    -0.360 OA
ATOM     13  H1  UNK A          72.772  11.070  33.084  0.00  0.00     0.218 HD
ENDBRANCH   1  12
BRANCH   3  14
ATOM     14  O10 UNK A          70.704  15.723  35.254  0.00  0.00    -0.361 OA
ATOM     15  H10 UNK A          70.057  15.692  35.985  0.00  0.00     0.218 HD
ENDBRANCH   3  14
BRANCH  11  16
ATOM     16  C10 UNK A          72.138  10.235  38.764  0.00  0.00     0.006 A 
ATOM     17  C11 UNK A          72.627   9.090  39.414  0.00  0.00     0.013 A 
ATOM     18  C12 UNK A          71.824   8.436  40.372  0.00  0.00     0.035 A 
ATOM     19  C13 UNK A          70.552   8.944  40.709  0.00  0.00     0.082 A 
ATOM     20  C14 UNK A          70.121  10.157  40.146  0.00  0.00     0.035 A 
ATOM     21  C15 UNK A          70.902  10.788  39.164  0.00  0.00     0.013 A 
BRANCH  19  22
ATOM     22  O4  UNK A          69.671   8.139  41.420  0.00  0.00    -0.305 OA
BRANCH  22  23
ATOM     23  C16 UNK A          69.369   6.913  40.857  0.00  0.00     0.143 C 
ATOM     24  C17 UNK A          69.808   5.707  41.463  0.00  0.00     0.119 C 
ATOM     25  C21 UNK A          69.620   4.477  40.781  0.00  0.00     0.086 C 
ATOM     26  C20 UNK A          69.132   4.522  39.470  0.00  0.00     0.099 C 
ATOM     27  C22 UNK A          69.764   3.138  41.403  0.00  0.00     0.193 C 
ATOM     28  C19 UNK A          68.619   5.682  38.903  0.00  0.00     0.071 C 
ATOM     29  O6  UNK A          68.991   3.367  38.785  0.00  0.00    -0.309 OA
ATOM     30  C18 UNK A          68.684   6.875  39.618  0.00  0.00     0.108 C 
ATOM     31  C24 UNK A          68.413   2.396  39.540  0.00  0.00     0.093 C 
ATOM     32  C25 UNK A          67.267   1.793  39.054  0.00  0.00     0.006 A 
ATOM     33  C23 UNK A          68.946   2.178  40.806  0.00  0.00     0.087 C 
ATOM     34  C26 UNK A          66.518   0.915  39.797  0.00  0.00     0.015 A 
ATOM     35  C30 UNK A          66.825   2.178  37.808  0.00  0.00     0.015 A 
ATOM     36  C27 UNK A          65.311   0.460  39.293  0.00  0.00     0.053 A 
ATOM     37  C28 UNK A          64.860   0.867  38.067  0.00  0.00     0.178 A 
ATOM     38  C29 UNK A          65.621   1.716  37.320  0.00  0.00     0.053 A 
ATOM     39  O9  UNK A          63.777   0.481  37.639  0.00  0.00    -0.290 OA
ATOM     40  O8  UNK A          70.283   2.900  42.489  0.00  0.00    -0.289 OA
BRANCH  24  41
ATOM     41  O7  UNK A          70.382   5.738  42.706  0.00  0.00    -0.357 OA
ATOM     42  H7  UNK A          70.928   4.934  42.822  0.00  0.00     0.218 HD
ENDBRANCH  24  41
BRANCH  30  43
ATOM     43  O5  UNK A          68.052   7.963  39.081  0.00  0.00    -0.358 OA
ATOM     44  H5  UNK A          67.608   8.452  39.798  0.00  0.00     0.218 HD
ENDBRANCH  30  43
ENDBRANCH  22  23
ENDBRANCH  19  22
ENDBRANCH  11  16
TORSDOF 7
ENDMDL
