REMARK  7 active torsions:
REMARK  status: ('A' for Active; 'I' for Inactive)
REMARK    1  A    between atoms: C1_1  and  O1_7 
REMARK    2  A    between atoms: C3_3  and  O10_40 
REMARK    3  A    between atoms: C9_12  and  C10_13 
REMARK    4  A    between atoms: C13_16  and  O4_19 
REMARK    5  A    between atoms: O4_19  and  C16_20 
REMARK    6  A    between atoms: C17_21  and  O7_29 
REMARK    7  A    between atoms: C18_22  and  O5_24 
ROOT
ATOM      1  C1  UNK A          -8.328   1.886   0.354  0.00  0.00     0.088 A 
ATOM      2  C2  UNK A          -9.429   1.273  -0.266  0.00  0.00     0.067 A 
ATOM      3  C3  UNK A          -9.517  -0.123  -0.362  0.00  0.00     0.076 A 
ATOM      4  C4  UNK A          -8.492  -0.926   0.155  0.00  0.00     0.068 A 
ATOM      5  C5  UNK A          -7.365  -0.318   0.723  0.00  0.00     0.098 A 
ATOM      6  C6  UNK A          -7.270   1.088   0.858  0.00  0.00     0.083 A 
ATOM      7  C7  UNK A          -6.021   1.698   1.356  0.00  0.00     0.193 C 
ATOM      8  O2  UNK A          -5.826   2.872   1.655  0.00  0.00    -0.289 OA
ATOM      9  C8  UNK A          -4.933   0.859   1.198  0.00  0.00     0.087 C 
ATOM     10  O3  UNK A          -6.293  -1.125   0.989  0.00  0.00    -0.309 OA
ATOM     11  C9  UNK A          -5.090  -0.491   0.955  0.00  0.00     0.093 C 
ENDROOT
BRANCH   1  12
ATOM     12  O1  UNK A          -8.283   3.254   0.367  0.00  0.00    -0.360 OA
ATOM     13  H1  UNK A          -7.450   3.542   0.796  0.00  0.00     0.218 HD
ENDBRANCH   1  12
BRANCH   3  14
ATOM     14  O10 UNK A         -10.568  -0.697  -1.015  0.00  0.00    -0.361 OA
ATOM     15  H10 UNK A         -10.434  -1.664  -1.043  0.00  0.00     0.218 HD
ENDBRANCH   3  14
BRANCH  11  16
ATOM     16  C10 UNK A          -4.029  -1.166   0.215  0.00  0.00     0.006 A 
ATOM     17  C11 UNK A          -3.418  -2.341   0.683  0.00  0.00     0.013 A 
ATOM     18  C12 UNK A          -2.362  -2.919  -0.053  0.00  0.00     0.035 A 
ATOM     19  C13 UNK A          -1.942  -2.349  -1.272  0.00  0.00     0.082 A 
ATOM     20  C14 UNK A          -2.638  -1.246  -1.796  0.00  0.00     0.035 A 
ATOM     21  C15 UNK A          -3.663  -0.647  -1.046  0.00  0.00     0.013 A 
BRANCH  19  22
ATOM     22  O4  UNK A          -0.731  -2.750  -1.823  0.00  0.00    -0.305 OA
BRANCH  22  23
ATOM     23  C16 UNK A           0.411  -2.312  -1.178  0.00  0.00     0.143 C 
ATOM     24  C17 UNK A           1.288  -3.233  -0.548  0.00  0.00     0.119 C 
ATOM     25  C21 UNK A           2.363  -2.744   0.238  0.00  0.00     0.086 C 
ATOM     26  C20 UNK A           2.429  -1.366   0.473  0.00  0.00     0.099 C 
ATOM     27  C22 UNK A           3.505  -3.566   0.709  0.00  0.00     0.193 C 
ATOM     28  C19 UNK A           1.633  -0.453  -0.207  0.00  0.00     0.071 C 
ATOM     29  O6  UNK A           3.416  -0.883   1.258  0.00  0.00    -0.309 OA
ATOM     30  C18 UNK A           0.655  -0.921  -1.081  0.00  0.00     0.108 C 
ATOM     31  C24 UNK A           4.621  -1.435   0.956  0.00  0.00     0.093 C 
ATOM     32  C25 UNK A           5.663  -0.583   0.639  0.00  0.00     0.006 A 
ATOM     33  C23 UNK A           4.676  -2.822   0.860  0.00  0.00     0.087 C 
ATOM     34  C26 UNK A           6.873  -1.032   0.172  0.00  0.00     0.015 A 
ATOM     35  C30 UNK A           5.422   0.771   0.711  0.00  0.00     0.015 A 
ATOM     36  C27 UNK A           7.818  -0.112  -0.254  0.00  0.00     0.053 A 
ATOM     37  C28 UNK A           7.564   1.232  -0.209  0.00  0.00     0.178 A 
ATOM     38  C29 UNK A           6.372   1.674   0.283  0.00  0.00     0.053 A 
ATOM     39  O9  UNK A           8.395   2.039  -0.614  0.00  0.00    -0.290 OA
ATOM     40  O8  UNK A           3.564  -4.791   0.697  0.00  0.00    -0.289 OA
BRANCH  24  41
ATOM     41  O7  UNK A           1.106  -4.579  -0.726  0.00  0.00    -0.357 OA
ATOM     42  H7  UNK A           1.814  -5.059  -0.251  0.00  0.00     0.218 HD
ENDBRANCH  24  41
BRANCH  30  43
ATOM     43  O5  UNK A          -0.016   0.009  -1.827  0.00  0.00    -0.358 OA
ATOM     44  H5  UNK A           0.412   0.876  -1.705  0.00  0.00     0.218 HD
ENDBRANCH  30  43
ENDBRANCH  22  23
ENDBRANCH  19  22
ENDBRANCH  11  16
TORSDOF 7
