MODEL 1
REMARK VINA RESULT:      -6.6      0.000      0.000
REMARK  5 active torsions:
REMARK  status: ('A' for Active; 'I' for Inactive)
REMARK    1  A    between atoms: C5_6  and  N2_7 
REMARK    2  A    between atoms: N2_7  and  C6_8 
REMARK    3  A    between atoms: C6_8  and  C7_9 
REMARK    4  A    between atoms: C6_8  and  C8_10 
REMARK    5  A    between atoms: C14_17  and  O1_27 
ROOT
ATOM      1  N1  UNK A          65.240  26.574  51.043  0.00  0.00    -0.242 NA
ATOM      2  C1  UNK A          64.525  27.510  51.720  0.00  0.00     0.113 A 
ATOM      3  C2  UNK A          63.900  28.555  51.013  0.00  0.00     0.020 A 
ATOM      4  C3  UNK A          64.023  28.596  49.612  0.00  0.00     0.005 A 
ATOM      5  C4  UNK A          64.761  27.600  48.943  0.00  0.00     0.044 A 
ATOM      6  C5  UNK A          65.379  26.573  49.688  0.00  0.00     0.118 A 
ENDROOT
BRANCH   6   7
ATOM      7  N2  UNK A          66.118  25.622  49.045  0.00  0.00    -0.318 N 
ATOM      8  HN2 UNK A          66.717  25.032  49.605  0.00  0.00     0.149 HD
BRANCH   7   9
ATOM      9  C6  UNK A          66.099  25.405  47.624  0.00  0.00     0.135 C 
BRANCH   9  10
ATOM     10  C7  UNK A          65.694  23.988  47.309  0.00  0.00     0.011 A 
ATOM     11  C14 UNK A          64.517  23.686  46.578  0.00  0.00     0.103 A 
ATOM     12  C15 UNK A          64.086  22.345  46.447  0.00  0.00     0.102 A 
ATOM     13  C16 UNK A          64.869  21.271  46.961  0.00  0.00     0.021 A 
ATOM     14  N3  UNK A          62.899  22.074  45.838  0.00  0.00    -0.253 NA
ATOM     15  C17 UNK A          66.091  21.563  47.611  0.00  0.00     0.051 A 
ATOM     16  C21 UNK A          64.375  19.954  46.802  0.00  0.00     0.013 A 
ATOM     17  C18 UNK A          66.477  22.905  47.784  0.00  0.00     0.030 A 
ATOM     18 Cl2  UNK A          67.133  20.372  48.231  0.00  0.00    -0.084 Cl
ATOM     19  C20 UNK A          63.141  19.722  46.169  0.00  0.00     0.021 A 
ATOM     20  C19 UNK A          62.405  20.820  45.694  0.00  0.00     0.112 A 
BRANCH  11  21
ATOM     21  O1  UNK A          63.769  24.666  46.000  0.00  0.00    -0.358 OA
ATOM     22  HO1 UNK A          63.206  25.072  46.663  0.00  0.00     0.218 HD
ENDBRANCH  11  21
ENDBRANCH   9  10
BRANCH   9  23
ATOM     23  C8  UNK A          67.403  25.836  47.021  0.00  0.00    -0.022 A 
ATOM     24  C9  UNK A          68.591  25.793  47.798  0.00  0.00     0.026 A 
ATOM     25  C10 UNK A          69.832  26.194  47.266  0.00  0.00     0.041 A 
ATOM     26  C11 UNK A          69.905  26.650  45.936  0.00  0.00     0.020 A 
ATOM     27 Cl1  UNK A          71.238  26.128  48.210  0.00  0.00    -0.084 Cl
ATOM     28  C12 UNK A          68.745  26.693  45.146  0.00  0.00     0.002 A 
ATOM     29  C13 UNK A          67.511  26.281  45.679  0.00  0.00     0.006 A 
ENDBRANCH   9  23
ENDBRANCH   7   9
ENDBRANCH   6   7
TORSDOF 5
ENDMDL
MODEL 2
REMARK VINA RESULT:      -6.3     16.861     19.090
REMARK  5 active torsions:
REMARK  status: ('A' for Active; 'I' for Inactive)
REMARK    1  A    between atoms: C5_6  and  N2_7 
REMARK    2  A    between atoms: N2_7  and  C6_8 
REMARK    3  A    between atoms: C6_8  and  C7_9 
REMARK    4  A    between atoms: C6_8  and  C8_10 
REMARK    5  A    between atoms: C14_17  and  O1_27 
ROOT
ATOM      1  N1  UNK A          59.484  24.722  32.307  0.00  0.00    -0.242 NA
ATOM      2  C1  UNK A          60.019  23.515  31.987  0.00  0.00     0.113 A 
ATOM      3  C2  UNK A          59.255  22.345  32.163  0.00  0.00     0.020 A 
ATOM      4  C3  UNK A          57.942  22.460  32.657  0.00  0.00     0.005 A 
ATOM      5  C4  UNK A          57.416  23.730  32.964  0.00  0.00     0.044 A 
ATOM      6  C5  UNK A          58.217  24.877  32.780  0.00  0.00     0.118 A 
ENDROOT
BRANCH   6   7
ATOM      7  N2  UNK A          57.720  26.108  33.103  0.00  0.00    -0.318 N 
ATOM      8  HN2 UNK A          57.650  26.346  34.082  0.00  0.00     0.149 HD
BRANCH   7   9
ATOM      9  C6  UNK A          57.289  27.085  32.141  0.00  0.00     0.135 C 
BRANCH   9  10
ATOM     10  C7  UNK A          57.971  28.406  32.385  0.00  0.00     0.011 A 
ATOM     11  C14 UNK A          59.330  28.627  32.043  0.00  0.00     0.103 A 
ATOM     12  C15 UNK A          59.978  29.820  32.437  0.00  0.00     0.102 A 
ATOM     13  C16 UNK A          59.260  30.858  33.099  0.00  0.00     0.021 A 
ATOM     14  N3  UNK A          61.310  29.976  32.199  0.00  0.00    -0.253 NA
ATOM     15  C17 UNK A          57.882  30.679  33.361  0.00  0.00     0.051 A 
ATOM     16  C21 UNK A          59.972  32.023  33.474  0.00  0.00     0.013 A 
ATOM     17  C18 UNK A          57.266  29.463  33.014  0.00  0.00     0.030 A 
ATOM     18 Cl2  UNK A          56.907  31.855  34.107  0.00  0.00    -0.084 Cl
ATOM     19  C20 UNK A          61.349  32.139  33.211  0.00  0.00     0.021 A 
ATOM     20  C19 UNK A          62.007  31.078  32.568  0.00  0.00     0.112 A 
BRANCH  11  21
ATOM     21  O1  UNK A          60.046  27.703  31.343  0.00  0.00    -0.358 OA
ATOM     22  HO1 UNK A          59.839  27.778  30.409  0.00  0.00     0.218 HD
ENDBRANCH  11  21
ENDBRANCH   9  10
BRANCH   9  23
ATOM     23  C8  UNK A          55.791  27.147  32.106  0.00  0.00    -0.022 A 
ATOM     24  C9  UNK A          55.125  27.497  30.902  0.00  0.00     0.026 A 
ATOM     25  C10 UNK A          53.719  27.568  30.833  0.00  0.00     0.041 A 
ATOM     26  C11 UNK A          52.951  27.290  31.979  0.00  0.00     0.020 A 
ATOM     27 Cl1  UNK A          52.946  27.982  29.383  0.00  0.00    -0.084 Cl
ATOM     28  C12 UNK A          53.587  26.932  33.179  0.00  0.00     0.002 A 
ATOM     29  C13 UNK A          54.990  26.852  33.238  0.00  0.00     0.006 A 
ENDBRANCH   9  23
ENDBRANCH   7   9
ENDBRANCH   6   7
TORSDOF 5
ENDMDL
MODEL 3
REMARK VINA RESULT:      -6.2     20.393     22.941
REMARK  5 active torsions:
REMARK  status: ('A' for Active; 'I' for Inactive)
REMARK    1  A    between atoms: C5_6  and  N2_7 
REMARK    2  A    between atoms: N2_7  and  C6_8 
REMARK    3  A    between atoms: C6_8  and  C7_9 
REMARK    4  A    between atoms: C6_8  and  C8_10 
REMARK    5  A    between atoms: C14_17  and  O1_27 
ROOT
ATOM      1  N1  UNK A          46.741  19.058  57.519  0.00  0.00    -0.242 NA
ATOM      2  C1  UNK A          46.620  20.049  58.442  0.00  0.00     0.113 A 
ATOM      3  C2  UNK A          46.847  21.385  58.064  0.00  0.00     0.020 A 
ATOM      4  C3  UNK A          47.186  21.665  56.726  0.00  0.00     0.005 A 
ATOM      5  C4  UNK A          47.289  20.613  55.794  0.00  0.00     0.044 A 
ATOM      6  C5  UNK A          47.060  19.286  56.215  0.00  0.00     0.118 A 
ENDROOT
BRANCH   6   7
ATOM      7  N2  UNK A          47.186  18.262  55.320  0.00  0.00    -0.318 N 
ATOM      8  HN2 UNK A          47.832  17.518  55.544  0.00  0.00     0.149 HD
BRANCH   7   9
ATOM      9  C6  UNK A          46.460  18.174  54.083  0.00  0.00     0.135 C 
BRANCH   9  10
ATOM     10  C7  UNK A          45.010  17.859  54.340  0.00  0.00     0.011 A 
ATOM     11  C14 UNK A          43.960  18.544  53.675  0.00  0.00     0.103 A 
ATOM     12  C15 UNK A          42.617  18.335  54.063  0.00  0.00     0.102 A 
ATOM     13  C16 UNK A          42.284  17.372  55.058  0.00  0.00     0.021 A 
ATOM     14  N3  UNK A          41.627  19.077  53.494  0.00  0.00    -0.253 NA
ATOM     15  C17 UNK A          43.320  16.621  55.659  0.00  0.00     0.051 A 
ATOM     16  C21 UNK A          40.919  17.219  55.406  0.00  0.00     0.013 A 
ATOM     17  C18 UNK A          44.657  16.880  55.304  0.00  0.00     0.030 A 
ATOM     18 Cl2  UNK A          43.051  15.415  56.828  0.00  0.00    -0.084 Cl
ATOM     19  C20 UNK A          39.931  18.011  54.793  0.00  0.00     0.021 A 
ATOM     20  C19 UNK A          40.319  18.955  53.829  0.00  0.00     0.112 A 
BRANCH  11  21
ATOM     21  O1  UNK A          44.213  19.420  52.664  0.00  0.00    -0.358 OA
ATOM     22  HO1 UNK A          45.119  19.733  52.730  0.00  0.00     0.218 HD
ENDBRANCH  11  21
ENDBRANCH   9  10
BRANCH   9  23
ATOM     23  C8  UNK A          47.154  17.229  53.146  0.00  0.00    -0.022 A 
ATOM     24  C9  UNK A          48.049  16.253  53.660  0.00  0.00     0.026 A 
ATOM     25  C10 UNK A          48.720  15.352  52.810  0.00  0.00     0.041 A 
ATOM     26  C11 UNK A          48.506  15.415  51.421  0.00  0.00     0.020 A 
ATOM     27 Cl1  UNK A          49.779  14.192  53.446  0.00  0.00    -0.084 Cl
ATOM     28  C12 UNK A          47.619  16.365  50.890  0.00  0.00     0.002 A 
ATOM     29  C13 UNK A          46.942  17.254  51.745  0.00  0.00     0.006 A 
ENDBRANCH   9  23
ENDBRANCH   7   9
ENDBRANCH   6   7
TORSDOF 5
ENDMDL
MODEL 4
REMARK VINA RESULT:      -6.2     20.266     22.492
REMARK  5 active torsions:
REMARK  status: ('A' for Active; 'I' for Inactive)
REMARK    1  A    between atoms: C5_6  and  N2_7 
REMARK    2  A    between atoms: N2_7  and  C6_8 
REMARK    3  A    between atoms: C6_8  and  C7_9 
REMARK    4  A    between atoms: C6_8  and  C8_10 
REMARK    5  A    between atoms: C14_17  and  O1_27 
ROOT
ATOM      1  N1  UNK A          42.666  16.928  56.440  0.00  0.00    -0.242 NA
ATOM      2  C1  UNK A          41.489  16.465  55.943  0.00  0.00     0.113 A 
ATOM      3  C2  UNK A          40.889  17.117  54.850  0.00  0.00     0.020 A 
ATOM      4  C3  UNK A          41.535  18.234  54.288  0.00  0.00     0.005 A 
ATOM      5  C4  UNK A          42.762  18.677  54.820  0.00  0.00     0.044 A 
ATOM      6  C5  UNK A          43.327  18.000  55.922  0.00  0.00     0.118 A 
ENDROOT
BRANCH   6   7
ATOM      7  N2  UNK A          44.502  18.444  56.458  0.00  0.00    -0.318 N 
ATOM      8  HN2 UNK A          44.672  18.260  57.437  0.00  0.00     0.149 HD
BRANCH   7   9
ATOM      9  C6  UNK A          45.511  19.155  55.722  0.00  0.00     0.135 C 
BRANCH   9  10
ATOM     10  C7  UNK A          46.303  18.209  54.858  0.00  0.00     0.011 A 
ATOM     11  C14 UNK A          46.251  18.258  53.442  0.00  0.00     0.103 A 
ATOM     12  C15 UNK A          46.877  17.251  52.671  0.00  0.00     0.102 A 
ATOM     13  C16 UNK A          47.646  16.226  53.293  0.00  0.00     0.021 A 
ATOM     14  N3  UNK A          46.729  17.247  51.317  0.00  0.00    -0.253 NA
ATOM     15  C17 UNK A          47.776  16.225  54.702  0.00  0.00     0.051 A 
ATOM     16  C21 UNK A          48.239  15.244  52.463  0.00  0.00     0.013 A 
ATOM     17  C18 UNK A          47.100  17.200  55.458  0.00  0.00     0.030 A 
ATOM     18 Cl2  UNK A          48.697  15.083  55.559  0.00  0.00    -0.084 Cl
ATOM     19  C20 UNK A          48.056  15.277  51.069  0.00  0.00     0.021 A 
ATOM     20  C19 UNK A          47.276  16.303  50.512  0.00  0.00     0.112 A 
BRANCH  11  21
ATOM     21  O1  UNK A          45.594  19.257  52.790  0.00  0.00    -0.358 OA
ATOM     22  HO1 UNK A          46.229  19.904  52.472  0.00  0.00     0.218 HD
ENDBRANCH  11  21
ENDBRANCH   9  10
BRANCH   9  23
ATOM     23  C8  UNK A          46.332  19.994  56.655  0.00  0.00    -0.022 A 
ATOM     24  C9  UNK A          47.430  20.743  56.153  0.00  0.00     0.026 A 
ATOM     25  C10 UNK A          48.226  21.538  57.001  0.00  0.00     0.041 A 
ATOM     26  C11 UNK A          47.934  21.598  58.376  0.00  0.00     0.020 A 
ATOM     27 Cl1  UNK A          49.527  22.428  56.378  0.00  0.00    -0.084 Cl
ATOM     28  C12 UNK A          46.848  20.874  58.894  0.00  0.00     0.002 A 
ATOM     29  C13 UNK A          46.050  20.090  58.041  0.00  0.00     0.006 A 
ENDBRANCH   9  23
ENDBRANCH   7   9
ENDBRANCH   6   7
TORSDOF 5
ENDMDL
MODEL 5
REMARK VINA RESULT:      -6.0     20.420     23.099
REMARK  5 active torsions:
REMARK  status: ('A' for Active; 'I' for Inactive)
REMARK    1  A    between atoms: C5_6  and  N2_7 
REMARK    2  A    between atoms: N2_7  and  C6_8 
REMARK    3  A    between atoms: C6_8  and  C7_9 
REMARK    4  A    between atoms: C6_8  and  C8_10 
REMARK    5  A    between atoms: C14_17  and  O1_27 
ROOT
ATOM      1  N1  UNK A          46.508  19.155  57.481  0.00  0.00    -0.242 NA
ATOM      2  C1  UNK A          46.520  20.170  58.384  0.00  0.00     0.113 A 
ATOM      3  C2  UNK A          46.900  21.462  57.975  0.00  0.00     0.020 A 
ATOM      4  C3  UNK A          47.249  21.673  56.628  0.00  0.00     0.005 A 
ATOM      5  C4  UNK A          47.211  20.599  55.717  0.00  0.00     0.044 A 
ATOM      6  C5  UNK A          46.830  19.317  56.168  0.00  0.00     0.118 A 
ENDROOT
BRANCH   6   7
ATOM      7  N2  UNK A          46.819  18.268  55.294  0.00  0.00    -0.318 N 
ATOM      8  HN2 UNK A          47.273  17.412  55.578  0.00  0.00     0.149 HD
BRANCH   7   9
ATOM      9  C6  UNK A          46.202  18.303  53.996  0.00  0.00     0.135 C 
BRANCH   9  10
ATOM     10  C7  UNK A          44.732  17.994  54.098  0.00  0.00     0.011 A 
ATOM     11  C14 UNK A          44.218  17.083  55.057  0.00  0.00     0.103 A 
ATOM     12  C15 UNK A          42.859  16.695  55.013  0.00  0.00     0.102 A 
ATOM     13  C16 UNK A          41.962  17.278  54.072  0.00  0.00     0.021 A 
ATOM     14  N3  UNK A          42.401  15.739  55.868  0.00  0.00    -0.253 NA
ATOM     15  C17 UNK A          42.450  18.255  53.174  0.00  0.00     0.051 A 
ATOM     16  C21 UNK A          40.615  16.839  54.077  0.00  0.00     0.013 A 
ATOM     17  C18 UNK A          43.817  18.588  53.192  0.00  0.00     0.030 A 
ATOM     18 Cl2  UNK A          41.475  19.053  52.033  0.00  0.00    -0.084 Cl
ATOM     19  C20 UNK A          40.189  15.845  54.976  0.00  0.00     0.021 A 
ATOM     20  C19 UNK A          41.120  15.296  55.872  0.00  0.00     0.112 A 
BRANCH  11  21
ATOM     21  O1  UNK A          45.011  16.551  56.027  0.00  0.00    -0.358 OA
ATOM     22  HO1 UNK A          45.444  15.762  55.691  0.00  0.00     0.218 HD
ENDBRANCH  11  21
ENDBRANCH   9  10
BRANCH   9  23
ATOM     23  C8  UNK A          46.964  17.431  53.041  0.00  0.00    -0.022 A 
ATOM     24  C9  UNK A          47.815  16.411  53.541  0.00  0.00     0.026 A 
ATOM     25  C10 UNK A          48.548  15.576  52.674  0.00  0.00     0.041 A 
ATOM     26  C11 UNK A          48.441  15.752  51.282  0.00  0.00     0.020 A 
ATOM     27 Cl1  UNK A          49.554  14.360  53.293  0.00  0.00    -0.084 Cl
ATOM     28  C12 UNK A          47.598  16.748  50.764  0.00  0.00     0.002 A 
ATOM     29  C13 UNK A          46.860  17.571  51.635  0.00  0.00     0.006 A 
ENDBRANCH   9  23
ENDBRANCH   7   9
ENDBRANCH   6   7
TORSDOF 5
ENDMDL
MODEL 6
REMARK VINA RESULT:      -6.0     20.314     23.249
REMARK  5 active torsions:
REMARK  status: ('A' for Active; 'I' for Inactive)
REMARK    1  A    between atoms: C5_6  and  N2_7 
REMARK    2  A    between atoms: N2_7  and  C6_8 
REMARK    3  A    between atoms: C6_8  and  C7_9 
REMARK    4  A    between atoms: C6_8  and  C8_10 
REMARK    5  A    between atoms: C14_17  and  O1_27 
ROOT
ATOM      1  N1  UNK A          42.635  16.962  53.964  0.00  0.00    -0.242 NA
ATOM      2  C1  UNK A          41.286  16.827  54.044  0.00  0.00     0.113 A 
ATOM      3  C2  UNK A          40.455  17.659  53.270  0.00  0.00     0.020 A 
ATOM      4  C3  UNK A          41.049  18.609  52.418  0.00  0.00     0.005 A 
ATOM      5  C4  UNK A          42.453  18.711  52.351  0.00  0.00     0.044 A 
ATOM      6  C5  UNK A          43.250  17.863  53.148  0.00  0.00     0.118 A 
ENDROOT
BRANCH   6   7
ATOM      7  N2  UNK A          44.611  17.977  53.107  0.00  0.00    -0.318 N 
ATOM      8  HN2 UNK A          45.009  18.619  52.436  0.00  0.00     0.149 HD
BRANCH   7   9
ATOM      9  C6  UNK A          45.511  17.245  53.954  0.00  0.00     0.135 C 
BRANCH   9  10
ATOM     10  C7  UNK A          45.830  18.033  55.197  0.00  0.00     0.011 A 
ATOM     11  C14 UNK A          45.585  17.522  56.498  0.00  0.00     0.103 A 
ATOM     12  C15 UNK A          45.742  18.353  57.631  0.00  0.00     0.102 A 
ATOM     13  C16 UNK A          46.235  19.684  57.499  0.00  0.00     0.021 A 
ATOM     14  N3  UNK A          45.401  17.886  58.863  0.00  0.00    -0.253 NA
ATOM     15  C17 UNK A          46.567  20.168  56.212  0.00  0.00     0.051 A 
ATOM     16  C21 UNK A          46.360  20.465  58.673  0.00  0.00     0.013 A 
ATOM     17  C18 UNK A          46.350  19.348  55.089  0.00  0.00     0.030 A 
ATOM     18 Cl2  UNK A          47.200  21.719  55.927  0.00  0.00    -0.084 Cl
ATOM     19  C20 UNK A          45.992  19.942  59.926  0.00  0.00     0.021 A 
ATOM     20  C19 UNK A          45.499  18.629  59.993  0.00  0.00     0.112 A 
BRANCH  11  21
ATOM     21  O1  UNK A          45.186  16.234  56.691  0.00  0.00    -0.358 OA
ATOM     22  HO1 UNK A          45.900  15.638  56.454  0.00  0.00     0.218 HD
ENDBRANCH  11  21
ENDBRANCH   9  10
BRANCH   9  23
ATOM     23  C8  UNK A          46.708  16.798  53.168  0.00  0.00    -0.022 A 
ATOM     24  C9  UNK A          47.781  16.139  53.824  0.00  0.00     0.026 A 
ATOM     25  C10 UNK A          48.922  15.709  53.118  0.00  0.00     0.041 A 
ATOM     26  C11 UNK A          49.009  15.935  51.732  0.00  0.00     0.020 A 
ATOM     27 Cl1  UNK A          50.187  14.918  53.922  0.00  0.00    -0.084 Cl
ATOM     28  C12 UNK A          47.957  16.577  51.059  0.00  0.00     0.002 A 
ATOM     29  C13 UNK A          46.815  16.994  51.768  0.00  0.00     0.006 A 
ENDBRANCH   9  23
ENDBRANCH   7   9
ENDBRANCH   6   7
TORSDOF 5
ENDMDL
MODEL 7
REMARK VINA RESULT:      -5.9      1.717      5.671
REMARK  5 active torsions:
REMARK  status: ('A' for Active; 'I' for Inactive)
REMARK    1  A    between atoms: C5_6  and  N2_7 
REMARK    2  A    between atoms: N2_7  and  C6_8 
REMARK    3  A    between atoms: C6_8  and  C7_9 
REMARK    4  A    between atoms: C6_8  and  C8_10 
REMARK    5  A    between atoms: C14_17  and  O1_27 
ROOT
ATOM      1  N1  UNK A          65.391  26.399  50.349  0.00  0.00    -0.242 NA
ATOM      2  C1  UNK A          64.947  27.012  51.477  0.00  0.00     0.113 A 
ATOM      3  C2  UNK A          64.197  28.200  51.376  0.00  0.00     0.020 A 
ATOM      4  C3  UNK A          63.914  28.718  50.098  0.00  0.00     0.005 A 
ATOM      5  C4  UNK A          64.379  28.047  48.950  0.00  0.00     0.044 A 
ATOM      6  C5  UNK A          65.134  26.863  49.094  0.00  0.00     0.118 A 
ENDROOT
BRANCH   6   7
ATOM      7  N2  UNK A          65.610  26.225  47.985  0.00  0.00    -0.318 N 
ATOM      8  HN2 UNK A          65.301  26.555  47.082  0.00  0.00     0.149 HD
BRANCH   7   9
ATOM      9  C6  UNK A          66.521  25.114  48.018  0.00  0.00     0.135 C 
BRANCH   9  10
ATOM     10  C7  UNK A          67.890  25.536  47.552  0.00  0.00     0.011 A 
ATOM     11  C14 UNK A          68.083  26.286  46.363  0.00  0.00     0.103 A 
ATOM     12  C15 UNK A          69.389  26.520  45.874  0.00  0.00     0.102 A 
ATOM     13  C16 UNK A          70.533  26.092  46.608  0.00  0.00     0.021 A 
ATOM     14  N3  UNK A          69.560  27.146  44.677  0.00  0.00    -0.253 NA
ATOM     15  C17 UNK A          70.346  25.423  47.841  0.00  0.00     0.051 A 
ATOM     16  C21 UNK A          71.812  26.351  46.057  0.00  0.00     0.013 A 
ATOM     17  C18 UNK A          69.040  25.147  48.285  0.00  0.00     0.030 A 
ATOM     18 Cl2  UNK A          71.627  24.898  48.828  0.00  0.00    -0.084 Cl
ATOM     19  C20 UNK A          71.939  26.998  44.815  0.00  0.00     0.021 A 
ATOM     20  C19 UNK A          70.777  27.385  44.129  0.00  0.00     0.112 A 
BRANCH  11  21
ATOM     21  O1  UNK A          67.030  26.787  45.660  0.00  0.00    -0.358 OA
ATOM     22  HO1 UNK A          66.533  26.064  45.269  0.00  0.00     0.218 HD
ENDBRANCH  11  21
ENDBRANCH   9  10
BRANCH   9  23
ATOM     23  C8  UNK A          65.937  23.947  47.279  0.00  0.00    -0.022 A 
ATOM     24  C9  UNK A          66.239  22.623  47.694  0.00  0.00     0.026 A 
ATOM     25  C10 UNK A          65.711  21.503  47.021  0.00  0.00     0.041 A 
ATOM     26  C11 UNK A          64.866  21.692  45.912  0.00  0.00     0.020 A 
ATOM     27 Cl1  UNK A          66.081  19.932  47.538  0.00  0.00    -0.084 Cl
ATOM     28  C12 UNK A          64.544  22.992  45.489  0.00  0.00     0.002 A 
ATOM     29  C13 UNK A          65.066  24.106  46.172  0.00  0.00     0.006 A 
ENDBRANCH   9  23
ENDBRANCH   7   9
ENDBRANCH   6   7
TORSDOF 5
ENDMDL
MODEL 8
REMARK VINA RESULT:      -5.9      4.828      7.923
REMARK  5 active torsions:
REMARK  status: ('A' for Active; 'I' for Inactive)
REMARK    1  A    between atoms: C5_6  and  N2_7 
REMARK    2  A    between atoms: N2_7  and  C6_8 
REMARK    3  A    between atoms: C6_8  and  C7_9 
REMARK    4  A    between atoms: C6_8  and  C8_10 
REMARK    5  A    between atoms: C14_17  and  O1_27 
ROOT
ATOM      1  N1  UNK A          63.155  20.880  46.932  0.00  0.00    -0.242 NA
ATOM      2  C1  UNK A          62.487  21.877  46.294  0.00  0.00     0.113 A 
ATOM      3  C2  UNK A          63.197  22.787  45.488  0.00  0.00     0.020 A 
ATOM      4  C3  UNK A          64.589  22.632  45.353  0.00  0.00     0.005 A 
ATOM      5  C4  UNK A          65.246  21.578  46.018  0.00  0.00     0.044 A 
ATOM      6  C5  UNK A          64.499  20.691  46.822  0.00  0.00     0.118 A 
ENDROOT
BRANCH   6   7
ATOM      7  N2  UNK A          65.136  19.685  47.491  0.00  0.00    -0.318 N 
ATOM      8  HN2 UNK A          66.082  19.461  47.215  0.00  0.00     0.149 HD
BRANCH   7   9
ATOM      9  C6  UNK A          64.549  18.924  48.559  0.00  0.00     0.135 C 
BRANCH   9  10
ATOM     10  C7  UNK A          64.580  19.706  49.846  0.00  0.00     0.011 A 
ATOM     11  C14 UNK A          63.464  19.763  50.720  0.00  0.00     0.103 A 
ATOM     12  C15 UNK A          63.474  20.638  51.831  0.00  0.00     0.102 A 
ATOM     13  C16 UNK A          64.632  21.405  52.147  0.00  0.00     0.021 A 
ATOM     14  N3  UNK A          62.358  20.765  52.601  0.00  0.00    -0.253 NA
ATOM     15  C17 UNK A          65.780  21.282  51.330  0.00  0.00     0.051 A 
ATOM     16  C21 UNK A          64.572  22.268  53.269  0.00  0.00     0.013 A 
ATOM     17  C18 UNK A          65.734  20.451  50.196  0.00  0.00     0.030 A 
ATOM     18 Cl2  UNK A          67.235  22.111  51.624  0.00  0.00    -0.084 Cl
ATOM     19  C20 UNK A          63.395  22.370  54.033  0.00  0.00     0.021 A 
ATOM     20  C19 UNK A          62.280  21.600  53.666  0.00  0.00     0.112 A 
BRANCH  11  21
ATOM     21  O1  UNK A          62.358  18.995  50.511  0.00  0.00    -0.358 OA
ATOM     22  HO1 UNK A          62.377  18.643  49.618  0.00  0.00     0.218 HD
ENDBRANCH  11  21
ENDBRANCH   9  10
BRANCH   9  23
ATOM     23  C8  UNK A          65.183  17.566  48.632  0.00  0.00    -0.022 A 
ATOM     24  C9  UNK A          65.560  17.027  49.891  0.00  0.00     0.026 A 
ATOM     25  C10 UNK A          66.161  15.757  49.997  0.00  0.00     0.041 A 
ATOM     26  C11 UNK A          66.398  15.000  48.834  0.00  0.00     0.020 A 
ATOM     27 Cl1  UNK A          66.596  15.132  51.510  0.00  0.00    -0.084 Cl
ATOM     28  C12 UNK A          66.025  15.508  47.579  0.00  0.00     0.002 A 
ATOM     29  C13 UNK A          65.415  16.772  47.481  0.00  0.00     0.006 A 
ENDBRANCH   9  23
ENDBRANCH   7   9
ENDBRANCH   6   7
TORSDOF 5
ENDMDL
MODEL 9
REMARK VINA RESULT:      -5.8     21.059     23.561
REMARK  5 active torsions:
REMARK  status: ('A' for Active; 'I' for Inactive)
REMARK    1  A    between atoms: C5_6  and  N2_7 
REMARK    2  A    between atoms: N2_7  and  C6_8 
REMARK    3  A    between atoms: C6_8  and  C7_9 
REMARK    4  A    between atoms: C6_8  and  C8_10 
REMARK    5  A    between atoms: C14_17  and  O1_27 
ROOT
ATOM      1  N1  UNK A          46.910  17.194  51.511  0.00  0.00    -0.242 NA
ATOM      2  C1  UNK A          47.214  16.272  50.560  0.00  0.00     0.113 A 
ATOM      3  C2  UNK A          47.968  15.135  50.908  0.00  0.00     0.020 A 
ATOM      4  C3  UNK A          48.380  14.976  52.245  0.00  0.00     0.005 A 
ATOM      5  C4  UNK A          48.034  15.946  53.206  0.00  0.00     0.044 A 
ATOM      6  C5  UNK A          47.283  17.075  52.815  0.00  0.00     0.118 A 
ENDROOT
BRANCH   6   7
ATOM      7  N2  UNK A          46.969  18.031  53.739  0.00  0.00    -0.318 N 
ATOM      8  HN2 UNK A          47.362  18.954  53.614  0.00  0.00     0.149 HD
BRANCH   7   9
ATOM      9  C6  UNK A          46.117  17.811  54.875  0.00  0.00     0.135 C 
BRANCH   9  10
ATOM     10  C7  UNK A          44.702  17.546  54.434  0.00  0.00     0.011 A 
ATOM     11  C14 UNK A          44.040  18.370  53.488  0.00  0.00     0.103 A 
ATOM     12  C15 UNK A          42.663  18.188  53.225  0.00  0.00     0.102 A 
ATOM     13  C16 UNK A          41.938  17.120  53.829  0.00  0.00     0.021 A 
ATOM     14  N3  UNK A          42.013  19.052  52.397  0.00  0.00    -0.253 NA
ATOM     15  C17 UNK A          42.616  16.240  54.704  0.00  0.00     0.051 A 
ATOM     16  C21 UNK A          40.559  17.000  53.529  0.00  0.00     0.013 A 
ATOM     17  C18 UNK A          43.972  16.469  55.000  0.00  0.00     0.030 A 
ATOM     18 Cl2  UNK A          41.875  14.907  55.455  0.00  0.00    -0.084 Cl
ATOM     19  C20 UNK A          39.929  17.919  52.671  0.00  0.00     0.021 A 
ATOM     20  C19 UNK A          40.690  18.959  52.115  0.00  0.00     0.112 A 
BRANCH  11  21
ATOM     21  O1  UNK A          44.701  19.358  52.822  0.00  0.00    -0.358 OA
ATOM     22  HO1 UNK A          45.199  18.977  52.095  0.00  0.00     0.218 HD
ENDBRANCH  11  21
ENDBRANCH   9  10
BRANCH   9  23
ATOM     23  C8  UNK A          46.271  18.934  55.858  0.00  0.00    -0.022 A 
ATOM     24  C9  UNK A          45.825  18.769  57.196  0.00  0.00     0.026 A 
ATOM     25  C10 UNK A          45.950  19.803  58.145  0.00  0.00     0.041 A 
ATOM     26  C11 UNK A          46.527  21.029  57.767  0.00  0.00     0.020 A 
ATOM     27 Cl1  UNK A          45.416  19.581  59.738  0.00  0.00    -0.084 Cl
ATOM     28  C12 UNK A          46.984  21.212  56.452  0.00  0.00     0.002 A 
ATOM     29  C13 UNK A          46.866  20.172  55.512  0.00  0.00     0.006 A 
ENDBRANCH   9  23
ENDBRANCH   7   9
ENDBRANCH   6   7
TORSDOF 5
ENDMDL
