MODEL 1
REMARK VINA RESULT:      -7.6      0.000      0.000
REMARK  7 active torsions:
REMARK  status: ('A' for Active; 'I' for Inactive)
REMARK    1  A    between atoms: C1_1  and  O1_7 
REMARK    2  A    between atoms: C3_3  and  O10_40 
REMARK    3  A    between atoms: C9_12  and  C10_13 
REMARK    4  A    between atoms: C13_16  and  O4_19 
REMARK    5  A    between atoms: O4_19  and  C16_20 
REMARK    6  A    between atoms: C17_21  and  O7_29 
REMARK    7  A    between atoms: C18_22  and  O5_24 
ROOT
ATOM      1  C1  UNK A          64.778  17.601  49.686  0.00  0.00     0.088 A 
ATOM      2  C2  UNK A          64.214  17.866  50.945  0.00  0.00     0.067 A 
ATOM      3  C3  UNK A          63.341  18.947  51.130  0.00  0.00     0.076 A 
ATOM      4  C4  UNK A          63.030  19.787  50.053  0.00  0.00     0.068 A 
ATOM      5  C5  UNK A          63.634  19.561  48.810  0.00  0.00     0.098 A 
ATOM      6  C6  UNK A          64.494  18.458  48.593  0.00  0.00     0.083 A 
ATOM      7  C7  UNK A          65.201  18.317  47.305  0.00  0.00     0.193 C 
ATOM      8  O2  UNK A          65.866  17.362  46.914  0.00  0.00    -0.289 OA
ATOM      9  C8  UNK A          65.299  19.520  46.630  0.00  0.00     0.087 C 
ATOM     10  O3  UNK A          63.492  20.540  47.865  0.00  0.00    -0.309 OA
ATOM     11  C9  UNK A          64.509  20.602  46.963  0.00  0.00     0.093 C 
ENDROOT
BRANCH   1  12
ATOM     12  O1  UNK A          65.662  16.560  49.589  0.00  0.00    -0.360 OA
ATOM     13  H1  UNK A          65.300  15.788  50.074  0.00  0.00     0.218 HD
ENDBRANCH   1  12
BRANCH   3  14
ATOM     14  O10 UNK A          62.846  19.219  52.372  0.00  0.00    -0.361 OA
ATOM     15  H10 UNK A          62.811  20.187  52.494  0.00  0.00     0.218 HD
ENDBRANCH   3  14
BRANCH  11  16
ATOM     16  C10 UNK A          65.043  21.931  46.688  0.00  0.00     0.006 A 
ATOM     17  C11 UNK A          65.828  22.632  47.618  0.00  0.00     0.013 A 
ATOM     18  C12 UNK A          66.273  23.936  47.314  0.00  0.00     0.035 A 
ATOM     19  C13 UNK A          65.970  24.525  46.069  0.00  0.00     0.082 A 
ATOM     20  C14 UNK A          65.291  23.772  45.096  0.00  0.00     0.035 A 
ATOM     21  C15 UNK A          64.814  22.490  45.412  0.00  0.00     0.013 A 
BRANCH  19  22
ATOM     22  O4  UNK A          66.159  25.891  45.905  0.00  0.00    -0.305 OA
BRANCH  22  23
ATOM     23  C16 UNK A          66.126  26.658  47.056  0.00  0.00     0.143 C 
ATOM     24  C17 UNK A          67.319  26.959  47.762  0.00  0.00     0.119 C 
ATOM     25  C21 UNK A          67.238  27.610  49.020  0.00  0.00     0.086 C 
ATOM     26  C20 UNK A          65.968  27.803  49.577  0.00  0.00     0.099 C 
ATOM     27  C22 UNK A          68.387  28.233  49.723  0.00  0.00     0.193 C 
ATOM     28  C19 UNK A          64.798  27.594  48.859  0.00  0.00     0.071 C 
ATOM     29  O6  UNK A          65.869  28.378  50.795  0.00  0.00    -0.309 OA
ATOM     30  C18 UNK A          64.874  27.071  47.570  0.00  0.00     0.108 C 
ATOM     31  C24 UNK A          66.678  29.464  50.911  0.00  0.00     0.093 C 
ATOM     32  C25 UNK A          66.100  30.666  51.275  0.00  0.00     0.006 A 
ATOM     33  C23 UNK A          68.006  29.309  50.525  0.00  0.00     0.087 C 
ATOM     34  C26 UNK A          66.790  31.853  51.274  0.00  0.00     0.015 A 
ATOM     35  C30 UNK A          64.751  30.665  51.554  0.00  0.00     0.015 A 
ATOM     36  C27 UNK A          66.108  33.034  51.517  0.00  0.00     0.053 A 
ATOM     37  C28 UNK A          64.762  33.032  51.764  0.00  0.00     0.178 A 
ATOM     38  C29 UNK A          64.086  31.849  51.793  0.00  0.00     0.053 A 
ATOM     39  O9  UNK A          64.159  34.085  51.951  0.00  0.00    -0.290 OA
ATOM     40  O8  UNK A          69.571  28.072  49.450  0.00  0.00    -0.289 OA
BRANCH  24  41
ATOM     41  O7  UNK A          68.534  26.645  47.214  0.00  0.00    -0.357 OA
ATOM     42  H7  UNK A          69.129  26.329  47.924  0.00  0.00     0.218 HD
ENDBRANCH  24  41
BRANCH  30  43
ATOM     43  O5  UNK A          63.712  27.004  46.852  0.00  0.00    -0.358 OA
ATOM     44  H5  UNK A          63.054  27.594  47.264  0.00  0.00     0.218 HD
ENDBRANCH  30  43
ENDBRANCH  22  23
ENDBRANCH  19  22
ENDBRANCH  11  16
TORSDOF 7
ENDMDL
MODEL 2
REMARK VINA RESULT:      -7.4      6.248     11.282
REMARK  7 active torsions:
REMARK  status: ('A' for Active; 'I' for Inactive)
REMARK    1  A    between atoms: C1_1  and  O1_7 
REMARK    2  A    between atoms: C3_3  and  O10_40 
REMARK    3  A    between atoms: C9_12  and  C10_13 
REMARK    4  A    between atoms: C13_16  and  O4_19 
REMARK    5  A    between atoms: O4_19  and  C16_20 
REMARK    6  A    between atoms: C17_21  and  O7_29 
REMARK    7  A    between atoms: C18_22  and  O5_24 
ROOT
ATOM      1  C1  UNK A          61.767   7.305  51.764  0.00  0.00     0.088 A 
ATOM      2  C2  UNK A          60.452   7.594  51.362  0.00  0.00     0.067 A 
ATOM      3  C3  UNK A          60.196   8.243  50.146  0.00  0.00     0.076 A 
ATOM      4  C4  UNK A          61.260   8.623  49.318  0.00  0.00     0.068 A 
ATOM      5  C5  UNK A          62.575   8.389  49.740  0.00  0.00     0.098 A 
ATOM      6  C6  UNK A          62.856   7.707  50.949  0.00  0.00     0.083 A 
ATOM      7  C7  UNK A          64.250   7.580  51.417  0.00  0.00     0.193 C 
ATOM      8  O2  UNK A          64.668   6.913  52.359  0.00  0.00    -0.289 OA
ATOM      9  C8  UNK A          65.077   8.537  50.857  0.00  0.00     0.087 C 
ATOM     10  O3  UNK A          63.573   8.989  49.023  0.00  0.00    -0.309 OA
ATOM     11  C9  UNK A          64.700   9.252  49.738  0.00  0.00     0.093 C 
ENDROOT
BRANCH   1  12
ATOM     12  O1  UNK A          61.946   6.716  52.986  0.00  0.00    -0.360 OA
ATOM     13  H1  UNK A          62.868   6.868  53.282  0.00  0.00     0.218 HD
ENDBRANCH   1  12
BRANCH   3  14
ATOM     14  O10 UNK A          58.916   8.562  49.800  0.00  0.00    -0.361 OA
ATOM     15  H10 UNK A          58.550   7.845  49.246  0.00  0.00     0.218 HD
ENDBRANCH   3  14
BRANCH  11  16
ATOM     16  C10 UNK A          65.268  10.586  49.574  0.00  0.00     0.006 A 
ATOM     17  C11 UNK A          66.209  10.884  48.574  0.00  0.00     0.013 A 
ATOM     18  C12 UNK A          66.760  12.180  48.498  0.00  0.00     0.035 A 
ATOM     19  C13 UNK A          66.345  13.189  49.392  0.00  0.00     0.082 A 
ATOM     20  C14 UNK A          65.315  12.919  50.309  0.00  0.00     0.035 A 
ATOM     21  C15 UNK A          64.794  11.619  50.411  0.00  0.00     0.013 A 
BRANCH  19  22
ATOM     22  O4  UNK A          67.097  14.353  49.493  0.00  0.00    -0.305 OA
BRANCH  22  23
ATOM     23  C16 UNK A          66.448  15.532  49.177  0.00  0.00     0.143 C 
ATOM     24  C17 UNK A          66.022  16.422  50.197  0.00  0.00     0.119 C 
ATOM     25  C21 UNK A          65.222  17.542  49.853  0.00  0.00     0.086 C 
ATOM     26  C20 UNK A          64.769  17.643  48.533  0.00  0.00     0.099 C 
ATOM     27  C22 UNK A          64.949  18.691  50.752  0.00  0.00     0.193 C 
ATOM     28  C19 UNK A          65.250  16.831  47.513  0.00  0.00     0.071 C 
ATOM     29  O6  UNK A          63.966  18.675  48.194  0.00  0.00    -0.309 OA
ATOM     30  C18 UNK A          66.138  15.804  47.823  0.00  0.00     0.108 C 
ATOM     31  C24 UNK A          64.414  19.854  48.701  0.00  0.00     0.093 C 
ATOM     32  C25 UNK A          64.640  20.895  47.818  0.00  0.00     0.006 A 
ATOM     33  C23 UNK A          64.738  19.880  50.054  0.00  0.00     0.087 C 
ATOM     34  C26 UNK A          65.235  22.073  48.196  0.00  0.00     0.015 A 
ATOM     35  C30 UNK A          64.336  20.681  46.492  0.00  0.00     0.015 A 
ATOM     36  C27 UNK A          65.552  23.012  47.227  0.00  0.00     0.053 A 
ATOM     37  C28 UNK A          65.276  22.784  45.906  0.00  0.00     0.178 A 
ATOM     38  C29 UNK A          64.659  21.625  45.540  0.00  0.00     0.053 A 
ATOM     39  O9  UNK A          65.585  23.608  45.052  0.00  0.00    -0.290 OA
ATOM     40  O8  UNK A          65.164  18.728  51.959  0.00  0.00    -0.289 OA
BRANCH  24  41
ATOM     41  O7  UNK A          66.407  16.208  51.494  0.00  0.00    -0.357 OA
ATOM     42  H7  UNK A          67.371  16.043  51.513  0.00  0.00     0.218 HD
ENDBRANCH  24  41
BRANCH  30  43
ATOM     43  O5  UNK A          66.687  15.115  46.777  0.00  0.00    -0.358 OA
ATOM     44  H5  UNK A          67.584  15.458  46.612  0.00  0.00     0.218 HD
ENDBRANCH  30  43
ENDBRANCH  22  23
ENDBRANCH  19  22
ENDBRANCH  11  16
TORSDOF 7
ENDMDL
MODEL 3
REMARK VINA RESULT:      -7.4     18.759     23.501
REMARK  7 active torsions:
REMARK  status: ('A' for Active; 'I' for Inactive)
REMARK    1  A    between atoms: C1_1  and  O1_7 
REMARK    2  A    between atoms: C3_3  and  O10_40 
REMARK    3  A    between atoms: C9_12  and  C10_13 
REMARK    4  A    between atoms: C13_16  and  O4_19 
REMARK    5  A    between atoms: O4_19  and  C16_20 
REMARK    6  A    between atoms: C17_21  and  O7_29 
REMARK    7  A    between atoms: C18_22  and  O5_24 
ROOT
ATOM      1  C1  UNK A          63.876   2.015  31.533  0.00  0.00     0.088 A 
ATOM      2  C2  UNK A          62.859   2.887  31.113  0.00  0.00     0.067 A 
ATOM      3  C3  UNK A          63.081   4.269  31.032  0.00  0.00     0.076 A 
ATOM      4  C4  UNK A          64.329   4.798  31.383  0.00  0.00     0.068 A 
ATOM      5  C5  UNK A          65.330   3.940  31.858  0.00  0.00     0.098 A 
ATOM      6  C6  UNK A          65.137   2.539  31.918  0.00  0.00     0.083 A 
ATOM      7  C7  UNK A          66.169   1.678  32.529  0.00  0.00     0.193 C 
ATOM      8  O2  UNK A          66.216   0.452  32.538  0.00  0.00    -0.289 OA
ATOM      9  C8  UNK A          66.996   2.384  33.383  0.00  0.00     0.087 C 
ATOM     10  O3  UNK A          66.435   4.523  32.414  0.00  0.00    -0.309 OA
ATOM     11  C9  UNK A          67.058   3.763  33.354  0.00  0.00     0.093 C 
ENDROOT
BRANCH   1  12
ATOM     12  O1  UNK A          63.574   0.684  31.638  0.00  0.00    -0.360 OA
ATOM     13  H1  UNK A          63.703   0.399  32.567  0.00  0.00     0.218 HD
ENDBRANCH   1  12
BRANCH   3  14
ATOM     14  O10 UNK A          62.064   5.103  30.673  0.00  0.00    -0.361 OA
ATOM     15  H10 UNK A          62.360   5.663  29.929  0.00  0.00     0.218 HD
ENDBRANCH   3  14
BRANCH  11  16
ATOM     16  C10 UNK A          67.420   4.443  34.593  0.00  0.00     0.006 A 
ATOM     17  C11 UNK A          67.213   5.820  34.781  0.00  0.00     0.013 A 
ATOM     18  C12 UNK A          67.631   6.430  35.983  0.00  0.00     0.035 A 
ATOM     19  C13 UNK A          68.217   5.663  37.011  0.00  0.00     0.082 A 
ATOM     20  C14 UNK A          68.308   4.268  36.866  0.00  0.00     0.035 A 
ATOM     21  C15 UNK A          67.929   3.665  35.656  0.00  0.00     0.013 A 
BRANCH  19  22
ATOM     22  O4  UNK A          68.879   6.313  38.045  0.00  0.00    -0.305 OA
BRANCH  22  23
ATOM     23  C16 UNK A          69.705   7.361  37.681  0.00  0.00     0.143 C 
ATOM     24  C17 UNK A          70.795   7.154  36.797  0.00  0.00     0.119 C 
ATOM     25  C21 UNK A          71.716   8.209  36.568  0.00  0.00     0.086 C 
ATOM     26  C20 UNK A          71.585   9.371  37.336  0.00  0.00     0.099 C 
ATOM     27  C22 UNK A          72.717   8.231  35.473  0.00  0.00     0.193 C 
ATOM     28  C19 UNK A          70.475   9.618  38.135  0.00  0.00     0.071 C 
ATOM     29  O6  UNK A          72.478  10.370  37.169  0.00  0.00    -0.309 OA
ATOM     30  C18 UNK A          69.499   8.633  38.267  0.00  0.00     0.108 C 
ATOM     31  C24 UNK A          72.721  10.619  35.855  0.00  0.00     0.093 C 
ATOM     32  C25 UNK A          72.528  11.907  35.393  0.00  0.00     0.006 A 
ATOM     33  C23 UNK A          73.019   9.525  35.048  0.00  0.00     0.087 C 
ATOM     34  C26 UNK A          72.594  12.237  34.062  0.00  0.00     0.015 A 
ATOM     35  C30 UNK A          72.159  12.864  36.312  0.00  0.00     0.015 A 
ATOM     36  C27 UNK A          72.253  13.520  33.664  0.00  0.00     0.053 A 
ATOM     37  C28 UNK A          71.859  14.460  34.577  0.00  0.00     0.178 A 
ATOM     38  C29 UNK A          71.822  14.136  35.901  0.00  0.00     0.053 A 
ATOM     39  O9  UNK A          71.531  15.585  34.213  0.00  0.00    -0.290 OA
ATOM     40  O8  UNK A          73.049   7.274  34.782  0.00  0.00    -0.289 OA
BRANCH  24  41
ATOM     41  O7  UNK A          70.934   5.951  36.156  0.00  0.00    -0.357 OA
ATOM     42  H7  UNK A          71.339   6.106  35.278  0.00  0.00     0.218 HD
ENDBRANCH  24  41
BRANCH  30  43
ATOM     43  O5  UNK A          68.364   8.965  38.954  0.00  0.00    -0.358 OA
ATOM     44  H5  UNK A          68.325   9.934  39.046  0.00  0.00     0.218 HD
ENDBRANCH  30  43
ENDBRANCH  22  23
ENDBRANCH  19  22
ENDBRANCH  11  16
TORSDOF 7
ENDMDL
MODEL 4
REMARK VINA RESULT:      -7.4     21.135     25.761
REMARK  7 active torsions:
REMARK  status: ('A' for Active; 'I' for Inactive)
REMARK    1  A    between atoms: C1_1  and  O1_7 
REMARK    2  A    between atoms: C3_3  and  O10_40 
REMARK    3  A    between atoms: C9_12  and  C10_13 
REMARK    4  A    between atoms: C13_16  and  O4_19 
REMARK    5  A    between atoms: O4_19  and  C16_20 
REMARK    6  A    between atoms: C17_21  and  O7_29 
REMARK    7  A    between atoms: C18_22  and  O5_24 
ROOT
ATOM      1  C1  UNK A          36.527  21.386  49.342  0.00  0.00     0.088 A 
ATOM      2  C2  UNK A          36.741  20.781  48.093  0.00  0.00     0.067 A 
ATOM      3  C3  UNK A          37.216  19.465  48.001  0.00  0.00     0.076 A 
ATOM      4  C4  UNK A          37.493  18.738  49.166  0.00  0.00     0.068 A 
ATOM      5  C5  UNK A          37.336  19.356  50.413  0.00  0.00     0.098 A 
ATOM      6  C6  UNK A          36.829  20.673  50.530  0.00  0.00     0.083 A 
ATOM      7  C7  UNK A          36.785  21.332  51.850  0.00  0.00     0.193 C 
ATOM      8  O2  UNK A          36.258  22.402  52.138  0.00  0.00    -0.289 OA
ATOM      9  C8  UNK A          37.667  20.758  52.748  0.00  0.00     0.087 C 
ATOM     10  O3  UNK A          37.847  18.700  51.499  0.00  0.00    -0.309 OA
ATOM     11  C9  UNK A          38.219  19.513  52.524  0.00  0.00     0.093 C 
ENDROOT
BRANCH   1  12
ATOM     12  O1  UNK A          36.112  22.690  49.357  0.00  0.00    -0.360 OA
ATOM     13  H1  UNK A          36.205  23.044  50.266  0.00  0.00     0.218 HD
ENDBRANCH   1  12
BRANCH   3  14
ATOM     14  O10 UNK A          37.468  18.914  46.779  0.00  0.00    -0.361 OA
ATOM     15  H10 UNK A          37.891  18.043  46.904  0.00  0.00     0.218 HD
ENDBRANCH   3  14
BRANCH  11  16
ATOM     16  C10 UNK A          39.526  19.244  53.115  0.00  0.00     0.006 A 
ATOM     17  C11 UNK A          39.743  19.274  54.502  0.00  0.00     0.013 A 
ATOM     18  C12 UNK A          41.041  19.055  55.010  0.00  0.00     0.035 A 
ATOM     19  C13 UNK A          42.113  18.768  54.140  0.00  0.00     0.082 A 
ATOM     20  C14 UNK A          41.865  18.618  52.764  0.00  0.00     0.035 A 
ATOM     21  C15 UNK A          40.582  18.873  52.254  0.00  0.00     0.013 A 
BRANCH  19  22
ATOM     22  O4  UNK A          43.414  18.848  54.621  0.00  0.00    -0.305 OA
BRANCH  22  23
ATOM     23  C16 UNK A          44.298  17.890  54.159  0.00  0.00     0.143 C 
ATOM     24  C17 UNK A          45.133  18.152  53.042  0.00  0.00     0.119 C 
ATOM     25  C21 UNK A          45.913  17.100  52.495  0.00  0.00     0.086 C 
ATOM     26  C20 UNK A          45.717  15.809  52.998  0.00  0.00     0.099 C 
ATOM     27  C22 UNK A          47.025  17.289  51.531  0.00  0.00     0.193 C 
ATOM     28  C19 UNK A          44.972  15.558  54.143  0.00  0.00     0.071 C 
ATOM     29  O6  UNK A          46.413  14.785  52.459  0.00  0.00    -0.309 OA
ATOM     30  C18 UNK A          44.303  16.610  54.764  0.00  0.00     0.108 C 
ATOM     31  C24 UNK A          47.723  15.099  52.282  0.00  0.00     0.093 C 
ATOM     32  C25 UNK A          48.672  14.276  52.862  0.00  0.00     0.006 A 
ATOM     33  C23 UNK A          48.005  16.302  51.642  0.00  0.00     0.087 C 
ATOM     34  C26 UNK A          50.010  14.582  52.877  0.00  0.00     0.015 A 
ATOM     35  C30 UNK A          48.222  13.159  53.528  0.00  0.00     0.015 A 
ATOM     36  C27 UNK A          50.880  13.777  53.595  0.00  0.00     0.053 A 
ATOM     37  C28 UNK A          50.425  12.684  54.282  0.00  0.00     0.178 A 
ATOM     38  C29 UNK A          49.099  12.368  54.239  0.00  0.00     0.053 A 
ATOM     39  O9  UNK A          51.197  11.992  54.938  0.00  0.00    -0.290 OA
ATOM     40  O8  UNK A          47.266  18.314  50.902  0.00  0.00    -0.289 OA
BRANCH  24  41
ATOM     41  O7  UNK A          45.199  19.417  52.521  0.00  0.00    -0.357 OA
ATOM     42  H7  UNK A          46.011  19.493  51.980  0.00  0.00     0.218 HD
ENDBRANCH  24  41
BRANCH  30  43
ATOM     43  O5  UNK A          43.691  16.346  55.959  0.00  0.00    -0.358 OA
ATOM     44  H5  UNK A          44.244  16.701  56.679  0.00  0.00     0.218 HD
ENDBRANCH  30  43
ENDBRANCH  22  23
ENDBRANCH  19  22
ENDBRANCH  11  16
TORSDOF 7
ENDMDL
MODEL 5
REMARK VINA RESULT:      -7.3      3.833      7.037
REMARK  7 active torsions:
REMARK  status: ('A' for Active; 'I' for Inactive)
REMARK    1  A    between atoms: C1_1  and  O1_7 
REMARK    2  A    between atoms: C3_3  and  O10_40 
REMARK    3  A    between atoms: C9_12  and  C10_13 
REMARK    4  A    between atoms: C13_16  and  O4_19 
REMARK    5  A    between atoms: O4_19  and  C16_20 
REMARK    6  A    between atoms: C17_21  and  O7_29 
REMARK    7  A    between atoms: C18_22  and  O5_24 
ROOT
ATOM      1  C1  UNK A          67.299  10.817  50.957  0.00  0.00     0.088 A 
ATOM      2  C2  UNK A          66.167   9.990  51.026  0.00  0.00     0.067 A 
ATOM      3  C3  UNK A          65.107  10.141  50.121  0.00  0.00     0.076 A 
ATOM      4  C4  UNK A          65.164  11.137  49.136  0.00  0.00     0.068 A 
ATOM      5  C5  UNK A          66.266  12.002  49.100  0.00  0.00     0.098 A 
ATOM      6  C6  UNK A          67.360  11.847  49.984  0.00  0.00     0.083 A 
ATOM      7  C7  UNK A          68.449  12.844  49.992  0.00  0.00     0.193 C 
ATOM      8  O2  UNK A          69.517  12.785  50.592  0.00  0.00    -0.289 OA
ATOM      9  C8  UNK A          68.048  14.056  49.459  0.00  0.00     0.087 C 
ATOM     10  O3  UNK A          66.166  13.099  48.289  0.00  0.00    -0.309 OA
ATOM     11  C9  UNK A          66.904  14.167  48.694  0.00  0.00     0.093 C 
ENDROOT
BRANCH   1  12
ATOM     12  O1  UNK A          68.273  10.647  51.904  0.00  0.00    -0.360 OA
ATOM     13  H1  UNK A          69.133  10.932  51.532  0.00  0.00     0.218 HD
ENDBRANCH   1  12
BRANCH   3  14
ATOM     14  O10 UNK A          63.993   9.363  50.238  0.00  0.00    -0.361 OA
ATOM     15  H10 UNK A          63.868   9.127  51.177  0.00  0.00     0.218 HD
ENDBRANCH   3  14
BRANCH  11  16
ATOM     16  C10 UNK A          66.222  15.457  48.692  0.00  0.00     0.006 A 
ATOM     17  C11 UNK A          65.966  16.172  49.874  0.00  0.00     0.013 A 
ATOM     18  C12 UNK A          65.257  17.391  49.812  0.00  0.00     0.035 A 
ATOM     19  C13 UNK A          64.839  17.914  48.571  0.00  0.00     0.082 A 
ATOM     20  C14 UNK A          65.205  17.257  47.384  0.00  0.00     0.035 A 
ATOM     21  C15 UNK A          65.876  16.025  47.447  0.00  0.00     0.013 A 
BRANCH  19  22
ATOM     22  O4  UNK A          63.904  18.942  48.553  0.00  0.00    -0.305 OA
BRANCH  22  23
ATOM     23  C16 UNK A          64.405  20.225  48.434  0.00  0.00     0.143 C 
ATOM     24  C17 UNK A          64.603  20.812  47.157  0.00  0.00     0.119 C 
ATOM     25  C21 UNK A          65.264  22.063  47.061  0.00  0.00     0.086 C 
ATOM     26  C20 UNK A          65.819  22.602  48.227  0.00  0.00     0.099 C 
ATOM     27  C22 UNK A          65.285  22.915  45.846  0.00  0.00     0.193 C 
ATOM     28  C19 UNK A          65.556  22.084  49.489  0.00  0.00     0.071 C 
ATOM     29  O6  UNK A          66.494  23.769  48.151  0.00  0.00    -0.309 OA
ATOM     30  C18 UNK A          64.798  20.921  49.602  0.00  0.00     0.108 C 
ATOM     31  C24 UNK A          65.837  24.688  47.395  0.00  0.00     0.093 C 
ATOM     32  C25 UNK A          65.549  25.913  47.968  0.00  0.00     0.006 A 
ATOM     33  C23 UNK A          65.389  24.274  46.144  0.00  0.00     0.087 C 
ATOM     34  C26 UNK A          64.760  26.852  47.353  0.00  0.00     0.015 A 
ATOM     35  C30 UNK A          66.002  26.138  49.248  0.00  0.00     0.015 A 
ATOM     36  C27 UNK A          64.404  27.997  48.048  0.00  0.00     0.053 A 
ATOM     37  C28 UNK A          64.832  28.205  49.331  0.00  0.00     0.178 A 
ATOM     38  C29 UNK A          65.639  27.282  49.927  0.00  0.00     0.053 A 
ATOM     39  O9  UNK A          64.489  29.208  49.950  0.00  0.00    -0.290 OA
ATOM     40  O8  UNK A          64.956  22.566  44.717  0.00  0.00    -0.289 OA
BRANCH  24  41
ATOM     41  O7  UNK A          64.133  20.180  46.036  0.00  0.00    -0.357 OA
ATOM     42  H7  UNK A          64.814  19.556  45.716  0.00  0.00     0.218 HD
ENDBRANCH  24  41
BRANCH  30  43
ATOM     43  O5  UNK A          64.452  20.519  50.863  0.00  0.00    -0.358 OA
ATOM     44  H5  UNK A          64.655  21.238  51.488  0.00  0.00     0.218 HD
ENDBRANCH  30  43
ENDBRANCH  22  23
ENDBRANCH  19  22
ENDBRANCH  11  16
TORSDOF 7
ENDMDL
MODEL 6
REMARK VINA RESULT:      -7.2      5.987     11.238
REMARK  7 active torsions:
REMARK  status: ('A' for Active; 'I' for Inactive)
REMARK    1  A    between atoms: C1_1  and  O1_7 
REMARK    2  A    between atoms: C3_3  and  O10_40 
REMARK    3  A    between atoms: C9_12  and  C10_13 
REMARK    4  A    between atoms: C13_16  and  O4_19 
REMARK    5  A    between atoms: O4_19  and  C16_20 
REMARK    6  A    between atoms: C17_21  and  O7_29 
REMARK    7  A    between atoms: C18_22  and  O5_24 
ROOT
ATOM      1  C1  UNK A          63.826  20.034  46.627  0.00  0.00     0.088 A 
ATOM      2  C2  UNK A          64.048  21.220  45.908  0.00  0.00     0.067 A 
ATOM      3  C3  UNK A          64.775  22.279  46.471  0.00  0.00     0.076 A 
ATOM      4  C4  UNK A          65.282  22.166  47.772  0.00  0.00     0.068 A 
ATOM      5  C5  UNK A          65.015  21.009  48.514  0.00  0.00     0.098 A 
ATOM      6  C6  UNK A          64.310  19.916  47.955  0.00  0.00     0.083 A 
ATOM      7  C7  UNK A          63.949  18.761  48.801  0.00  0.00     0.193 C 
ATOM      8  O2  UNK A          63.466  17.691  48.444  0.00  0.00    -0.289 OA
ATOM      9  C8  UNK A          63.938  19.084  50.145  0.00  0.00     0.087 C 
ATOM     10  O3  UNK A          65.317  21.044  49.847  0.00  0.00    -0.309 OA
ATOM     11  C9  UNK A          64.549  20.228  50.619  0.00  0.00     0.093 C 
ENDROOT
BRANCH   1  12
ATOM     12  O1  UNK A          63.065  19.062  46.036  0.00  0.00    -0.360 OA
ATOM     13  H1  UNK A          62.438  19.484  45.412  0.00  0.00     0.218 HD
ENDBRANCH   1  12
BRANCH   3  14
ATOM     14  O10 UNK A          64.933  23.443  45.777  0.00  0.00    -0.361 OA
ATOM     15  H10 UNK A          65.853  23.752  45.882  0.00  0.00     0.218 HD
ENDBRANCH   3  14
BRANCH  11  16
ATOM     16  C10 UNK A          64.010  20.819  51.839  0.00  0.00     0.006 A 
ATOM     17  C11 UNK A          62.960  20.227  52.560  0.00  0.00     0.013 A 
ATOM     18  C12 UNK A          62.447  20.873  53.704  0.00  0.00     0.035 A 
ATOM     19  C13 UNK A          63.006  22.087  54.152  0.00  0.00     0.082 A 
ATOM     20  C14 UNK A          64.135  22.611  53.500  0.00  0.00     0.035 A 
ATOM     21  C15 UNK A          64.621  21.990  52.338  0.00  0.00     0.013 A 
BRANCH  19  22
ATOM     22  O4  UNK A          62.312  22.846  55.087  0.00  0.00    -0.305 OA
BRANCH  22  23
ATOM     23  C16 UNK A          61.088  22.347  55.494  0.00  0.00     0.143 C 
ATOM     24  C17 UNK A          59.915  22.588  54.732  0.00  0.00     0.119 C 
ATOM     25  C21 UNK A          58.655  22.200  55.254  0.00  0.00     0.086 C 
ATOM     26  C20 UNK A          58.609  21.720  56.568  0.00  0.00     0.099 C 
ATOM     27  C22 UNK A          57.401  22.128  54.464  0.00  0.00     0.193 C 
ATOM     28  C19 UNK A          59.753  21.399  57.287  0.00  0.00     0.071 C 
ATOM     29  O6  UNK A          57.413  21.391  57.103  0.00  0.00    -0.309 OA
ATOM     30  C18 UNK A          61.002  21.660  56.729  0.00  0.00     0.108 C 
ATOM     31  C24 UNK A          56.653  20.666  56.239  0.00  0.00     0.093 C 
ATOM     32  C25 UNK A          56.185  19.436  56.663  0.00  0.00     0.006 A 
ATOM     33  C23 UNK A          56.517  21.162  54.946  0.00  0.00     0.087 C 
ATOM     34  C26 UNK A          55.542  18.558  55.826  0.00  0.00     0.015 A 
ATOM     35  C30 UNK A          56.472  19.057  57.955  0.00  0.00     0.015 A 
ATOM     36  C27 UNK A          55.226  17.290  56.288  0.00  0.00     0.053 A 
ATOM     37  C28 UNK A          55.540  16.907  57.564  0.00  0.00     0.178 A 
ATOM     38  C29 UNK A          56.152  17.792  58.401  0.00  0.00     0.053 A 
ATOM     39  O9  UNK A          55.282  15.773  57.957  0.00  0.00    -0.290 OA
ATOM     40  O8  UNK A          57.225  22.606  53.348  0.00  0.00    -0.289 OA
BRANCH  24  41
ATOM     41  O7  UNK A          60.014  23.164  53.493  0.00  0.00    -0.357 OA
ATOM     42  H7  UNK A          60.512  22.563  52.904  0.00  0.00     0.218 HD
ENDBRANCH  24  41
BRANCH  30  43
ATOM     43  O5  UNK A          62.100  21.210  57.411  0.00  0.00    -0.358 OA
ATOM     44  H5  UNK A          62.878  21.720  57.124  0.00  0.00     0.218 HD
ENDBRANCH  30  43
ENDBRANCH  22  23
ENDBRANCH  19  22
ENDBRANCH  11  16
TORSDOF 7
ENDMDL
MODEL 7
REMARK VINA RESULT:      -7.2     26.794     30.037
REMARK  7 active torsions:
REMARK  status: ('A' for Active; 'I' for Inactive)
REMARK    1  A    between atoms: C1_1  and  O1_7 
REMARK    2  A    between atoms: C3_3  and  O10_40 
REMARK    3  A    between atoms: C9_12  and  C10_13 
REMARK    4  A    between atoms: C13_16  and  O4_19 
REMARK    5  A    between atoms: O4_19  and  C16_20 
REMARK    6  A    between atoms: C17_21  and  O7_29 
REMARK    7  A    between atoms: C18_22  and  O5_24 
ROOT
ATOM      1  C1  UNK A          62.572  -3.606  47.051  0.00  0.00     0.088 A 
ATOM      2  C2  UNK A          62.866  -2.368  47.646  0.00  0.00     0.067 A 
ATOM      3  C3  UNK A          61.921  -1.333  47.662  0.00  0.00     0.076 A 
ATOM      4  C4  UNK A          60.666  -1.522  47.068  0.00  0.00     0.068 A 
ATOM      5  C5  UNK A          60.389  -2.734  46.422  0.00  0.00     0.098 A 
ATOM      6  C6  UNK A          61.317  -3.803  46.422  0.00  0.00     0.083 A 
ATOM      7  C7  UNK A          61.037  -5.021  45.636  0.00  0.00     0.193 C 
ATOM      8  O2  UNK A          61.664  -6.076  45.637  0.00  0.00    -0.289 OA
ATOM      9  C8  UNK A          60.119  -4.791  44.628  0.00  0.00     0.087 C 
ATOM     10  O3  UNK A          59.258  -2.783  45.654  0.00  0.00    -0.309 OA
ATOM     11  C9  UNK A          59.316  -3.668  44.623  0.00  0.00     0.093 C 
ENDROOT
BRANCH   1  12
ATOM     12  O1  UNK A          63.560  -4.553  47.027  0.00  0.00    -0.360 OA
ATOM     13  H1  UNK A          63.983  -4.596  47.910  0.00  0.00     0.218 HD
ENDBRANCH   1  12
BRANCH   3  14
ATOM     14  O10 UNK A          62.245  -0.121  48.198  0.00  0.00    -0.361 OA
ATOM     15  H10 UNK A          62.255  -0.197  49.171  0.00  0.00     0.218 HD
ENDBRANCH   3  14
BRANCH  11  16
ATOM     16  C10 UNK A          58.862  -3.175  43.327  0.00  0.00     0.006 A 
ATOM     17  C11 UNK A          58.152  -1.971  43.189  0.00  0.00     0.013 A 
ATOM     18  C12 UNK A          57.694  -1.573  41.915  0.00  0.00     0.035 A 
ATOM     19  C13 UNK A          57.978  -2.353  40.776  0.00  0.00     0.082 A 
ATOM     20  C14 UNK A          58.793  -3.491  40.902  0.00  0.00     0.035 A 
ATOM     21  C15 UNK A          59.216  -3.909  42.174  0.00  0.00     0.013 A 
BRANCH  19  22
ATOM     22  O4  UNK A          57.282  -2.107  39.599  0.00  0.00    -0.305 OA
BRANCH  22  23
ATOM     23  C16 UNK A          55.931  -1.840  39.730  0.00  0.00     0.143 C 
ATOM     24  C17 UNK A          55.019  -2.867  40.086  0.00  0.00     0.119 C 
ATOM     25  C21 UNK A          53.626  -2.600  40.058  0.00  0.00     0.086 C 
ATOM     26  C20 UNK A          53.204  -1.369  39.543  0.00  0.00     0.099 C 
ATOM     27  C22 UNK A          52.589  -3.469  40.668  0.00  0.00     0.193 C 
ATOM     28  C19 UNK A          54.086  -0.330  39.276  0.00  0.00     0.071 C 
ATOM     29  O6  UNK A          51.881  -1.113  39.462  0.00  0.00    -0.309 OA
ATOM     30  C18 UNK A          55.454  -0.543  39.423  0.00  0.00     0.108 C 
ATOM     31  C24 UNK A          51.223  -1.474  40.595  0.00  0.00     0.093 C 
ATOM     32  C25 UNK A          50.470  -0.512  41.242  0.00  0.00     0.006 A 
ATOM     33  C23 UNK A          51.468  -2.752  41.089  0.00  0.00     0.087 C 
ATOM     34  C26 UNK A          49.893  -0.723  42.470  0.00  0.00     0.015 A 
ATOM     35  C30 UNK A          50.390   0.732  40.658  0.00  0.00     0.015 A 
ATOM     36  C27 UNK A          49.270   0.333  43.115  0.00  0.00     0.053 A 
ATOM     37  C28 UNK A          49.218   1.576  42.545  0.00  0.00     0.178 A 
ATOM     38  C29 UNK A          49.767   1.774  41.313  0.00  0.00     0.053 A 
ATOM     39  O9  UNK A          48.689   2.513  43.136  0.00  0.00    -0.290 OA
ATOM     40  O8  UNK A          52.752  -4.620  41.058  0.00  0.00    -0.289 OA
BRANCH  24  41
ATOM     41  O7  UNK A          55.490  -4.092  40.478  0.00  0.00    -0.357 OA
ATOM     42  H7  UNK A          55.945  -3.995  41.338  0.00  0.00     0.218 HD
ENDBRANCH  24  41
BRANCH  30  43
ATOM     43  O5  UNK A          56.277   0.541  39.278  0.00  0.00    -0.358 OA
ATOM     44  H5  UNK A          57.202   0.243  39.346  0.00  0.00     0.218 HD
ENDBRANCH  30  43
ENDBRANCH  22  23
ENDBRANCH  19  22
ENDBRANCH  11  16
TORSDOF 7
ENDMDL
MODEL 8
REMARK VINA RESULT:      -7.2     25.545     28.747
REMARK  7 active torsions:
REMARK  status: ('A' for Active; 'I' for Inactive)
REMARK    1  A    between atoms: C1_1  and  O1_7 
REMARK    2  A    between atoms: C3_3  and  O10_40 
REMARK    3  A    between atoms: C9_12  and  C10_13 
REMARK    4  A    between atoms: C13_16  and  O4_19 
REMARK    5  A    between atoms: O4_19  and  C16_20 
REMARK    6  A    between atoms: C17_21  and  O7_29 
REMARK    7  A    between atoms: C18_22  and  O5_24 
ROOT
ATOM      1  C1  UNK A          58.474  -2.446  42.197  0.00  0.00     0.088 A 
ATOM      2  C2  UNK A          57.520  -1.837  41.365  0.00  0.00     0.067 A 
ATOM      3  C3  UNK A          57.392  -2.213  40.020  0.00  0.00     0.076 A 
ATOM      4  C4  UNK A          58.230  -3.200  39.487  0.00  0.00     0.068 A 
ATOM      5  C5  UNK A          59.221  -3.770  40.297  0.00  0.00     0.098 A 
ATOM      6  C6  UNK A          59.347  -3.428  41.665  0.00  0.00     0.083 A 
ATOM      7  C7  UNK A          60.473  -3.962  42.457  0.00  0.00     0.193 C 
ATOM      8  O2  UNK A          60.647  -3.873  43.669  0.00  0.00    -0.289 OA
ATOM      9  C8  UNK A          61.528  -4.363  41.658  0.00  0.00     0.087 C 
ATOM     10  O3  UNK A          60.163  -4.541  39.674  0.00  0.00    -0.309 OA
ATOM     11  C9  UNK A          61.369  -4.573  40.303  0.00  0.00     0.093 C 
ENDROOT
BRANCH   1  12
ATOM     12  O1  UNK A          58.578  -1.995  43.485  0.00  0.00    -0.360 OA
ATOM     13  H1  UNK A          57.981  -2.522  44.057  0.00  0.00     0.218 HD
ENDBRANCH   1  12
BRANCH   3  14
ATOM     14  O10 UNK A          56.496  -1.572  39.216  0.00  0.00    -0.361 OA
ATOM     15  H10 UNK A          56.974  -0.924  38.663  0.00  0.00     0.218 HD
ENDBRANCH   3  14
BRANCH  11  16
ATOM     16  C10 UNK A          62.541  -4.382  39.454  0.00  0.00     0.006 A 
ATOM     17  C11 UNK A          63.819  -4.829  39.828  0.00  0.00     0.013 A 
ATOM     18  C12 UNK A          64.922  -4.570  38.987  0.00  0.00     0.035 A 
ATOM     19  C13 UNK A          64.745  -3.902  37.758  0.00  0.00     0.082 A 
ATOM     20  C14 UNK A          63.448  -3.567  37.333  0.00  0.00     0.035 A 
ATOM     21  C15 UNK A          62.355  -3.789  38.186  0.00  0.00     0.013 A 
BRANCH  19  22
ATOM     22  O4  UNK A          65.860  -3.402  37.095  0.00  0.00    -0.305 OA
BRANCH  22  23
ATOM     23  C16 UNK A          65.815  -2.066  36.741  0.00  0.00     0.143 C 
ATOM     24  C17 UNK A          65.993  -1.050  37.715  0.00  0.00     0.119 C 
ATOM     25  C21 UNK A          65.785   0.306  37.352  0.00  0.00     0.086 C 
ATOM     26  C20 UNK A          65.274   0.572  36.077  0.00  0.00     0.099 C 
ATOM     27  C22 UNK A          66.206   1.471  38.169  0.00  0.00     0.193 C 
ATOM     28  C19 UNK A          65.180  -0.402  35.091  0.00  0.00     0.071 C 
ATOM     29  O6  UNK A          65.022   1.852  35.727  0.00  0.00    -0.309 OA
ATOM     30  C18 UNK A          65.505  -1.720  35.404  0.00  0.00     0.108 C 
ATOM     31  C24 UNK A          66.036   2.684  36.084  0.00  0.00     0.093 C 
ATOM     32  C25 UNK A          66.617   3.459  35.097  0.00  0.00     0.006 A 
ATOM     33  C23 UNK A          66.499   2.593  37.393  0.00  0.00     0.087 C 
ATOM     34  C26 UNK A          67.741   4.216  35.312  0.00  0.00     0.015 A 
ATOM     35  C30 UNK A          66.085   3.377  33.829  0.00  0.00     0.015 A 
ATOM     36  C27 UNK A          68.342   4.856  34.240  0.00  0.00     0.053 A 
ATOM     37  C28 UNK A          67.828   4.748  32.976  0.00  0.00     0.178 A 
ATOM     38  C29 UNK A          66.695   4.019  32.772  0.00  0.00     0.053 A 
ATOM     39  O9  UNK A          68.383   5.295  32.027  0.00  0.00    -0.290 OA
ATOM     40  O8  UNK A          66.561   1.438  39.343  0.00  0.00    -0.289 OA
BRANCH  24  41
ATOM     41  O7  UNK A          66.390  -1.383  38.983  0.00  0.00    -0.357 OA
ATOM     42  H7  UNK A          67.097  -0.767  39.265  0.00  0.00     0.218 HD
ENDBRANCH  24  41
BRANCH  30  43
ATOM     43  O5  UNK A          65.525  -2.621  34.375  0.00  0.00    -0.358 OA
ATOM     44  H5  UNK A          66.449  -2.882  34.205  0.00  0.00     0.218 HD
ENDBRANCH  30  43
ENDBRANCH  22  23
ENDBRANCH  19  22
ENDBRANCH  11  16
TORSDOF 7
ENDMDL
MODEL 9
REMARK VINA RESULT:      -7.1     21.528     25.001
REMARK  7 active torsions:
REMARK  status: ('A' for Active; 'I' for Inactive)
REMARK    1  A    between atoms: C1_1  and  O1_7 
REMARK    2  A    between atoms: C3_3  and  O10_40 
REMARK    3  A    between atoms: C9_12  and  C10_13 
REMARK    4  A    between atoms: C13_16  and  O4_19 
REMARK    5  A    between atoms: O4_19  and  C16_20 
REMARK    6  A    between atoms: C17_21  and  O7_29 
REMARK    7  A    between atoms: C18_22  and  O5_24 
ROOT
ATOM      1  C1  UNK A          48.531  15.612  29.191  0.00  0.00     0.088 A 
ATOM      2  C2  UNK A          48.253  16.909  29.654  0.00  0.00     0.067 A 
ATOM      3  C3  UNK A          48.795  18.033  29.015  0.00  0.00     0.076 A 
ATOM      4  C4  UNK A          49.634  17.871  27.905  0.00  0.00     0.068 A 
ATOM      5  C5  UNK A          49.960  16.578  27.475  0.00  0.00     0.098 A 
ATOM      6  C6  UNK A          49.401  15.430  28.086  0.00  0.00     0.083 A 
ATOM      7  C7  UNK A          49.854  14.085  27.682  0.00  0.00     0.193 C 
ATOM      8  O2  UNK A          49.380  13.002  28.012  0.00  0.00    -0.289 OA
ATOM      9  C8  UNK A          51.100  14.114  27.082  0.00  0.00     0.087 C 
ATOM     10  O3  UNK A          50.965  16.466  26.554  0.00  0.00    -0.309 OA
ATOM     11  C9  UNK A          51.645  15.289  26.604  0.00  0.00     0.093 C 
ENDROOT
BRANCH   1  12
ATOM     12  O1  UNK A          48.011  14.559  29.894  0.00  0.00    -0.360 OA
ATOM     13  H1  UNK A          47.242  14.198  29.405  0.00  0.00     0.218 HD
ENDBRANCH   1  12
BRANCH   3  14
ATOM     14  O10 UNK A          48.556  19.281  29.511  0.00  0.00    -0.361 OA
ATOM     15  H10 UNK A          48.007  19.203  30.315  0.00  0.00     0.218 HD
ENDBRANCH   3  14
BRANCH  11  16
ATOM     16  C10 UNK A          53.100  15.386  26.567  0.00  0.00     0.006 A 
ATOM     17  C11 UNK A          53.838  15.999  27.593  0.00  0.00     0.013 A 
ATOM     18  C12 UNK A          55.240  16.107  27.476  0.00  0.00     0.035 A 
ATOM     19  C13 UNK A          55.909  15.570  26.357  0.00  0.00     0.082 A 
ATOM     20  C14 UNK A          55.180  14.850  25.395  0.00  0.00     0.035 A 
ATOM     21  C15 UNK A          53.781  14.776  25.491  0.00  0.00     0.013 A 
BRANCH  19  22
ATOM     22  O4  UNK A          57.227  15.939  26.118  0.00  0.00    -0.305 OA
BRANCH  22  23
ATOM     23  C16 UNK A          57.620  17.168  26.615  0.00  0.00     0.143 C 
ATOM     24  C17 UNK A          57.288  18.367  25.933  0.00  0.00     0.119 C 
ATOM     25  C21 UNK A          57.837  19.597  26.379  0.00  0.00     0.086 C 
ATOM     26  C20 UNK A          58.799  19.554  27.394  0.00  0.00     0.099 C 
ATOM     27  C22 UNK A          57.362  20.936  25.952  0.00  0.00     0.193 C 
ATOM     28  C19 UNK A          59.065  18.403  28.124  0.00  0.00     0.071 C 
ATOM     29  O6  UNK A          59.371  20.708  27.801  0.00  0.00    -0.309 OA
ATOM     30  C18 UNK A          58.432  17.213  27.774  0.00  0.00     0.108 C 
ATOM     31  C24 UNK A          58.454  21.697  27.971  0.00  0.00     0.093 C 
ATOM     32  C25 UNK A          58.396  22.323  29.203  0.00  0.00     0.006 A 
ATOM     33  C23 UNK A          57.554  21.911  26.932  0.00  0.00     0.087 C 
ATOM     34  C26 UNK A          57.414  23.223  29.533  0.00  0.00     0.015 A 
ATOM     35  C30 UNK A          59.316  21.941  30.154  0.00  0.00     0.015 A 
ATOM     36  C27 UNK A          57.343  23.703  30.831  0.00  0.00     0.053 A 
ATOM     37  C28 UNK A          58.241  23.298  31.782  0.00  0.00     0.178 A 
ATOM     38  C29 UNK A          59.232  22.427  31.442  0.00  0.00     0.053 A 
ATOM     39  O9  UNK A          58.155  23.706  32.936  0.00  0.00    -0.290 OA
ATOM     40  O8  UNK A          56.618  21.169  25.005  0.00  0.00    -0.289 OA
BRANCH  24  41
ATOM     41  O7  UNK A          56.422  18.330  24.871  0.00  0.00    -0.357 OA
ATOM     42  H7  UNK A          56.343  19.231  24.497  0.00  0.00     0.218 HD
ENDBRANCH  24  41
BRANCH  30  43
ATOM     43  O5  UNK A          58.620  16.137  28.597  0.00  0.00    -0.358 OA
ATOM     44  H5  UNK A          59.479  15.728  28.386  0.00  0.00     0.218 HD
ENDBRANCH  30  43
ENDBRANCH  22  23
ENDBRANCH  19  22
ENDBRANCH  11  16
TORSDOF 7
ENDMDL
