MODEL 1
REMARK VINA RESULT:      -6.4      0.000      0.000
REMARK  5 active torsions:
REMARK  status: ('A' for Active; 'I' for Inactive)
REMARK    1  A    between atoms: C5_5  and  C7_9 
REMARK    2  A    between atoms: C7_9  and  C8_10 
REMARK    3  A    between atoms: C7_9  and  N1_16 
REMARK    4  A    between atoms: C9_11  and  O1_17 
REMARK    5  A    between atoms: N1_16  and  C17_22 
ROOT
ATOM      1  C1  UNK A          70.270  26.399  46.574  0.00  0.00     0.059 A 
ATOM      2  C2  UNK A          69.982  27.272  45.513  0.00  0.00     0.022 A 
ATOM      3  C3  UNK A          68.665  27.404  45.054  0.00  0.00     0.002 A 
ATOM      4  C4  UNK A          67.637  26.657  45.649  0.00  0.00     0.008 A 
ATOM      5  C5  UNK A          67.907  25.762  46.711  0.00  0.00    -0.003 A 
ATOM      6  C6  UNK A          69.239  25.647  47.176  0.00  0.00     0.065 A 
ATOM      7 Cl1  UNK A          71.931  26.274  47.125  0.00  0.00    -0.083 Cl
ATOM      8 Cl2  UNK A          69.638  24.580  48.514  0.00  0.00    -0.082 Cl
ENDROOT
BRANCH   5   9
ATOM      9  C7  UNK A          66.770  24.952  47.350  0.00  0.00     0.137 C 
BRANCH   9  10
ATOM     10  C8  UNK A          66.229  25.654  48.608  0.00  0.00     0.009 A 
ATOM     11  C9  UNK A          65.346  26.760  48.523  0.00  0.00     0.103 A 
ATOM     12  C10 UNK A          64.888  27.416  49.690  0.00  0.00     0.101 A 
ATOM     13  C11 UNK A          65.312  26.932  50.950  0.00  0.00     0.003 A 
ATOM     14  N2  UNK A          64.064  28.488  49.605  0.00  0.00    -0.254 NA
ATOM     15  C12 UNK A          66.178  25.832  51.039  0.00  0.00     0.011 A 
ATOM     16  C16 UNK A          64.861  27.564  52.122  0.00  0.00     0.012 A 
ATOM     17  C13 UNK A          66.640  25.203  49.877  0.00  0.00     0.009 A 
ATOM     18  C15 UNK A          64.007  28.669  52.006  0.00  0.00     0.021 A 
ATOM     19  C14 UNK A          63.637  29.099  50.725  0.00  0.00     0.112 A 
BRANCH  11  20
ATOM     20  O1  UNK A          64.934  27.222  47.300  0.00  0.00    -0.358 OA
ATOM     21  H1  UNK A          65.515  27.949  47.028  0.00  0.00     0.218 HD
ENDBRANCH  11  20
ENDBRANCH   9  10
BRANCH   9  22
ATOM     22  N1  UNK A          65.708  24.653  46.361  0.00  0.00    -0.318 N 
ATOM     23  HN1 UNK A          65.699  25.223  45.526  0.00  0.00     0.149 HD
BRANCH  22  24
ATOM     24  C17 UNK A          64.916  23.504  46.323  0.00  0.00     0.118 A 
ATOM     25  C18 UNK A          65.466  22.264  46.700  0.00  0.00     0.044 A 
ATOM     26  C19 UNK A          64.676  21.106  46.613  0.00  0.00     0.008 A 
ATOM     27  C20 UNK A          63.353  21.224  46.145  0.00  0.00    -0.033 A 
ATOM     28  C21 UNK A          62.882  22.505  45.804  0.00  0.00     0.116 A 
ATOM     29  C22 UNK A          62.457  20.006  45.995  0.00  0.00     0.046 C 
ATOM     30  N3  UNK A          63.641  23.613  45.894  0.00  0.00    -0.241 NA
ENDBRANCH  22  24
ENDBRANCH   9  22
ENDBRANCH   5   9
TORSDOF 5
ENDMDL
MODEL 2
REMARK VINA RESULT:      -6.2      2.093      6.374
REMARK  5 active torsions:
REMARK  status: ('A' for Active; 'I' for Inactive)
REMARK    1  A    between atoms: C5_5  and  C7_9 
REMARK    2  A    between atoms: C7_9  and  C8_10 
REMARK    3  A    between atoms: C7_9  and  N1_16 
REMARK    4  A    between atoms: C9_11  and  O1_17 
REMARK    5  A    between atoms: N1_16  and  C17_22 
ROOT
ATOM      1  C1  UNK A          66.226  28.251  50.739  0.00  0.00     0.059 A 
ATOM      2  C2  UNK A          65.077  28.955  50.347  0.00  0.00     0.022 A 
ATOM      3  C3  UNK A          64.605  28.848  49.033  0.00  0.00     0.002 A 
ATOM      4  C4  UNK A          65.286  28.043  48.106  0.00  0.00     0.008 A 
ATOM      5  C5  UNK A          66.453  27.336  48.476  0.00  0.00    -0.003 A 
ATOM      6  C6  UNK A          66.914  27.440  49.811  0.00  0.00     0.065 A 
ATOM      7 Cl1  UNK A          66.774  28.405  52.398  0.00  0.00    -0.083 Cl
ATOM      8 Cl2  UNK A          68.337  26.559  50.346  0.00  0.00    -0.082 Cl
ENDROOT
BRANCH   5   9
ATOM      9  C7  UNK A          67.187  26.460  47.450  0.00  0.00     0.137 C 
BRANCH   9  10
ATOM     10  C8  UNK A          66.536  25.070  47.342  0.00  0.00     0.009 A 
ATOM     11  C9  UNK A          65.396  24.842  46.530  0.00  0.00     0.103 A 
ATOM     12  C10 UNK A          64.789  23.565  46.472  0.00  0.00     0.101 A 
ATOM     13  C11 UNK A          65.356  22.510  47.224  0.00  0.00     0.003 A 
ATOM     14  N2  UNK A          63.685  23.356  45.714  0.00  0.00    -0.254 NA
ATOM     15  C12 UNK A          66.489  22.729  48.020  0.00  0.00     0.011 A 
ATOM     16  C16 UNK A          64.773  21.231  47.172  0.00  0.00     0.012 A 
ATOM     17  C13 UNK A          67.070  24.001  48.086  0.00  0.00     0.009 A 
ATOM     18  C15 UNK A          63.633  21.042  46.380  0.00  0.00     0.021 A 
ATOM     19  C14 UNK A          63.121  22.136  45.670  0.00  0.00     0.112 A 
BRANCH  11  20
ATOM     20  O1  UNK A          64.853  25.867  45.799  0.00  0.00    -0.358 OA
ATOM     21  H1  UNK A          65.326  26.686  46.012  0.00  0.00     0.218 HD
ENDBRANCH  11  20
ENDBRANCH   9  10
BRANCH   9  22
ATOM     22  N1  UNK A          67.290  27.147  46.141  0.00  0.00    -0.318 N 
ATOM     23  HN1 UNK A          66.525  27.760  45.895  0.00  0.00     0.149 HD
BRANCH  22  24
ATOM     24  C17 UNK A          68.440  27.262  45.359  0.00  0.00     0.118 A 
ATOM     25  C18 UNK A          68.741  28.489  44.736  0.00  0.00     0.044 A 
ATOM     26  C19 UNK A          69.875  28.582  43.912  0.00  0.00     0.008 A 
ATOM     27  C20 UNK A          70.675  27.438  43.732  0.00  0.00    -0.033 A 
ATOM     28  C21 UNK A          70.307  26.258  44.404  0.00  0.00     0.116 A 
ATOM     29  C22 UNK A          71.895  27.462  42.826  0.00  0.00     0.046 C 
ATOM     30  N3  UNK A          69.223  26.174  45.197  0.00  0.00    -0.241 NA
ENDBRANCH  22  24
ENDBRANCH   9  22
ENDBRANCH   5   9
TORSDOF 5
ENDMDL
MODEL 3
REMARK VINA RESULT:      -6.0     23.662     27.045
REMARK  5 active torsions:
REMARK  status: ('A' for Active; 'I' for Inactive)
REMARK    1  A    between atoms: C5_5  and  C7_9 
REMARK    2  A    between atoms: C7_9  and  C8_10 
REMARK    3  A    between atoms: C7_9  and  N1_16 
REMARK    4  A    between atoms: C9_11  and  O1_17 
REMARK    5  A    between atoms: N1_16  and  C17_22 
ROOT
ATOM      1  C1  UNK A          63.545   3.507  29.969  0.00  0.00     0.059 A 
ATOM      2  C2  UNK A          62.316   2.927  30.323  0.00  0.00     0.022 A 
ATOM      3  C3  UNK A          62.250   2.036  31.401  0.00  0.00     0.002 A 
ATOM      4  C4  UNK A          63.412   1.716  32.121  0.00  0.00     0.008 A 
ATOM      5  C5  UNK A          64.662   2.278  31.772  0.00  0.00    -0.003 A 
ATOM      6  C6  UNK A          64.716   3.189  30.690  0.00  0.00     0.065 A 
ATOM      7 Cl1  UNK A          63.581   4.627  28.619  0.00  0.00    -0.083 Cl
ATOM      8 Cl2  UNK A          66.230   3.951  30.225  0.00  0.00    -0.082 Cl
ENDROOT
BRANCH   5   9
ATOM      9  C7  UNK A          65.924   1.917  32.569  0.00  0.00     0.137 C 
BRANCH   9  10
ATOM     10  C8  UNK A          66.383   3.097  33.443  0.00  0.00     0.009 A 
ATOM     11  C9  UNK A          67.709   3.187  33.936  0.00  0.00     0.103 A 
ATOM     12  C10 UNK A          68.104   4.262  34.768  0.00  0.00     0.101 A 
ATOM     13  C11 UNK A          67.152   5.260  35.083  0.00  0.00     0.003 A 
ATOM     14  N2  UNK A          69.365   4.333  35.258  0.00  0.00    -0.254 NA
ATOM     15  C12 UNK A          65.842   5.180  34.589  0.00  0.00     0.011 A 
ATOM     16  C16 UNK A          67.527   6.341  35.901  0.00  0.00     0.012 A 
ATOM     17  C13 UNK A          65.457   4.102  33.782  0.00  0.00     0.009 A 
ATOM     18  C15 UNK A          68.838   6.391  36.392  0.00  0.00     0.021 A 
ATOM     19  C14 UNK A          69.723   5.362  36.047  0.00  0.00     0.112 A 
BRANCH  11  20
ATOM     20  O1  UNK A          68.629   2.220  33.624  0.00  0.00    -0.358 OA
ATOM     21  H1  UNK A          68.589   2.048  32.670  0.00  0.00     0.218 HD
ENDBRANCH  11  20
ENDBRANCH   9  10
BRANCH   9  22
ATOM     22  N1  UNK A          65.723   0.672  33.348  0.00  0.00    -0.318 N 
ATOM     23  HN1 UNK A          65.830  -0.196  32.840  0.00  0.00     0.149 HD
BRANCH  22  24
ATOM     24  C17 UNK A          65.691   0.566  34.739  0.00  0.00     0.118 A 
ATOM     25  C18 UNK A          64.526   0.932  35.440  0.00  0.00     0.044 A 
ATOM     26  C19 UNK A          64.519   0.868  36.843  0.00  0.00     0.008 A 
ATOM     27  C20 UNK A          65.685   0.440  37.506  0.00  0.00    -0.033 A 
ATOM     28  C21 UNK A          66.798   0.079  36.725  0.00  0.00     0.116 A 
ATOM     29  C22 UNK A          65.754   0.380  39.023  0.00  0.00     0.046 C 
ATOM     30  N3  UNK A          66.799   0.138  35.380  0.00  0.00    -0.241 NA
ENDBRANCH  22  24
ENDBRANCH   9  22
ENDBRANCH   5   9
TORSDOF 5
ENDMDL
MODEL 4
REMARK VINA RESULT:      -6.0      5.292      7.518
REMARK  5 active torsions:
REMARK  status: ('A' for Active; 'I' for Inactive)
REMARK    1  A    between atoms: C5_5  and  C7_9 
REMARK    2  A    between atoms: C7_9  and  C8_10 
REMARK    3  A    between atoms: C7_9  and  N1_16 
REMARK    4  A    between atoms: C9_11  and  O1_17 
REMARK    5  A    between atoms: N1_16  and  C17_22 
ROOT
ATOM      1  C1  UNK A          64.355  23.386  46.359  0.00  0.00     0.059 A 
ATOM      2  C2  UNK A          63.145  23.119  45.700  0.00  0.00     0.022 A 
ATOM      3  C3  UNK A          62.637  21.814  45.673  0.00  0.00     0.002 A 
ATOM      4  C4  UNK A          63.344  20.773  46.296  0.00  0.00     0.008 A 
ATOM      5  C5  UNK A          64.572  21.018  46.953  0.00  0.00    -0.003 A 
ATOM      6  C6  UNK A          65.068  22.343  46.987  0.00  0.00     0.065 A 
ATOM      7 Cl1  UNK A          64.947  25.037  46.379  0.00  0.00    -0.083 Cl
ATOM      8 Cl2  UNK A          66.571  22.723  47.817  0.00  0.00    -0.082 Cl
ENDROOT
BRANCH   5   9
ATOM      9  C7  UNK A          65.332  19.868  47.629  0.00  0.00     0.137 C 
BRANCH   9  10
ATOM     10  C8  UNK A          64.698  19.506  48.984  0.00  0.00     0.009 A 
ATOM     11  C9  UNK A          65.390  19.703  50.206  0.00  0.00     0.103 A 
ATOM     12  C10 UNK A          64.805  19.331  51.440  0.00  0.00     0.101 A 
ATOM     13  C11 UNK A          63.503  18.777  51.433  0.00  0.00     0.003 A 
ATOM     14  N2  UNK A          65.478  19.497  52.604  0.00  0.00    -0.254 NA
ATOM     15  C12 UNK A          62.812  18.590  50.227  0.00  0.00     0.011 A 
ATOM     16  C16 UNK A          62.901  18.409  52.650  0.00  0.00     0.012 A 
ATOM     17  C13 UNK A          63.408  18.944  49.011  0.00  0.00     0.009 A 
ATOM     18  C15 UNK A          63.617  18.593  53.839  0.00  0.00     0.021 A 
ATOM     19  C14 UNK A          64.906  19.138  53.768  0.00  0.00     0.112 A 
BRANCH  11  20
ATOM     20  O1  UNK A          66.649  20.245  50.208  0.00  0.00    -0.358 OA
ATOM     21  H1  UNK A          66.965  20.297  51.123  0.00  0.00     0.218 HD
ENDBRANCH  11  20
ENDBRANCH   9  10
BRANCH   9  22
ATOM     22  N1  UNK A          65.449  18.701  46.723  0.00  0.00    -0.318 N 
ATOM     23  HN1 UNK A          65.163  18.848  45.764  0.00  0.00     0.149 HD
BRANCH  22  24
ATOM     24  C17 UNK A          66.168  17.531  46.973  0.00  0.00     0.118 A 
ATOM     25  C18 UNK A          65.491  16.377  47.410  0.00  0.00     0.044 A 
ATOM     26  C19 UNK A          66.229  15.218  47.705  0.00  0.00     0.008 A 
ATOM     27  C20 UNK A          67.629  15.252  47.558  0.00  0.00    -0.033 A 
ATOM     28  C21 UNK A          68.219  16.445  47.102  0.00  0.00     0.116 A 
ATOM     29  C22 UNK A          68.488  14.044  47.893  0.00  0.00     0.046 C 
ATOM     30  N3  UNK A          67.508  17.551  46.815  0.00  0.00    -0.241 NA
ENDBRANCH  22  24
ENDBRANCH   9  22
ENDBRANCH   5   9
TORSDOF 5
ENDMDL
MODEL 5
REMARK VINA RESULT:      -6.0     17.498     19.548
REMARK  5 active torsions:
REMARK  status: ('A' for Active; 'I' for Inactive)
REMARK    1  A    between atoms: C5_5  and  C7_9 
REMARK    2  A    between atoms: C7_9  and  C8_10 
REMARK    3  A    between atoms: C7_9  and  N1_16 
REMARK    4  A    between atoms: C9_11  and  O1_17 
REMARK    5  A    between atoms: N1_16  and  C17_22 
ROOT
ATOM      1  C1  UNK A          56.694  23.322  30.862  0.00  0.00     0.059 A 
ATOM      2  C2  UNK A          57.174  22.665  32.006  0.00  0.00     0.022 A 
ATOM      3  C3  UNK A          57.519  23.406  33.144  0.00  0.00     0.002 A 
ATOM      4  C4  UNK A          57.392  24.804  33.136  0.00  0.00     0.008 A 
ATOM      5  C5  UNK A          56.923  25.486  31.990  0.00  0.00    -0.003 A 
ATOM      6  C6  UNK A          56.564  24.727  30.850  0.00  0.00     0.065 A 
ATOM      7 Cl1  UNK A          56.262  22.354  29.464  0.00  0.00    -0.083 Cl
ATOM      8 Cl2  UNK A          55.941  25.508  29.405  0.00  0.00    -0.082 Cl
ENDROOT
BRANCH   5   9
ATOM      9  C7  UNK A          56.791  27.016  31.998  0.00  0.00     0.137 C 
BRANCH   9  10
ATOM     10  C8  UNK A          55.352  27.445  32.331  0.00  0.00     0.009 A 
ATOM     11  C9  UNK A          54.867  28.739  32.011  0.00  0.00     0.103 A 
ATOM     12  C10 UNK A          53.551  29.128  32.357  0.00  0.00     0.101 A 
ATOM     13  C11 UNK A          52.718  28.191  33.012  0.00  0.00     0.003 A 
ATOM     14  N2  UNK A          53.099  30.373  32.072  0.00  0.00    -0.254 NA
ATOM     15  C12 UNK A          53.190  26.908  33.322  0.00  0.00     0.011 A 
ATOM     16  C16 UNK A          51.403  28.556  33.357  0.00  0.00     0.012 A 
ATOM     17  C13 UNK A          54.499  26.540  32.992  0.00  0.00     0.009 A 
ATOM     18  C15 UNK A          50.960  29.848  33.048  0.00  0.00     0.021 A 
ATOM     19  C14 UNK A          51.845  30.726  32.408  0.00  0.00     0.112 A 
BRANCH  11  20
ATOM     20  O1  UNK A          55.677  29.640  31.371  0.00  0.00    -0.358 OA
ATOM     21  H1  UNK A          56.094  30.211  32.035  0.00  0.00     0.218 HD
ENDBRANCH  11  20
ENDBRANCH   9  10
BRANCH   9  22
ATOM     22  N1  UNK A          57.795  27.632  32.898  0.00  0.00    -0.318 N 
ATOM     23  HN1 UNK A          57.834  27.269  33.841  0.00  0.00     0.149 HD
BRANCH  22  24
ATOM     24  C17 UNK A          58.864  28.439  32.510  0.00  0.00     0.118 A 
ATOM     25  C18 UNK A          59.702  28.029  31.455  0.00  0.00     0.044 A 
ATOM     26  C19 UNK A          60.804  28.825  31.103  0.00  0.00     0.008 A 
ATOM     27  C20 UNK A          61.040  30.011  31.824  0.00  0.00    -0.033 A 
ATOM     28  C21 UNK A          60.143  30.350  32.853  0.00  0.00     0.116 A 
ATOM     29  C22 UNK A          62.234  30.899  31.516  0.00  0.00     0.046 C 
ATOM     30  N3  UNK A          59.085  29.588  33.184  0.00  0.00    -0.241 NA
ENDBRANCH  22  24
ENDBRANCH   9  22
ENDBRANCH   5   9
TORSDOF 5
ENDMDL
MODEL 6
REMARK VINA RESULT:      -5.9      4.701      7.770
REMARK  5 active torsions:
REMARK  status: ('A' for Active; 'I' for Inactive)
REMARK    1  A    between atoms: C5_5  and  C7_9 
REMARK    2  A    between atoms: C7_9  and  C8_10 
REMARK    3  A    between atoms: C7_9  and  N1_16 
REMARK    4  A    between atoms: C9_11  and  O1_17 
REMARK    5  A    between atoms: N1_16  and  C17_22 
ROOT
ATOM      1  C1  UNK A          66.162  24.557  46.824  0.00  0.00     0.059 A 
ATOM      2  C2  UNK A          66.619  24.885  48.110  0.00  0.00     0.022 A 
ATOM      3  C3  UNK A          66.449  23.978  49.164  0.00  0.00     0.002 A 
ATOM      4  C4  UNK A          65.815  22.747  48.936  0.00  0.00     0.008 A 
ATOM      5  C5  UNK A          65.336  22.403  47.651  0.00  0.00    -0.003 A 
ATOM      6  C6  UNK A          65.525  23.320  46.589  0.00  0.00     0.065 A 
ATOM      7 Cl1  UNK A          66.406  25.717  45.531  0.00  0.00    -0.083 Cl
ATOM      8 Cl2  UNK A          64.984  22.940  44.961  0.00  0.00    -0.082 Cl
ENDROOT
BRANCH   5   9
ATOM      9  C7  UNK A          64.644  21.051  47.418  0.00  0.00     0.137 C 
BRANCH   9  10
ATOM     10  C8  UNK A          65.626  19.885  47.618  0.00  0.00     0.009 A 
ATOM     11  C9  UNK A          65.270  18.548  47.307  0.00  0.00     0.103 A 
ATOM     12  C10 UNK A          66.175  17.483  47.532  0.00  0.00     0.101 A 
ATOM     13  C11 UNK A          67.455  17.781  48.055  0.00  0.00     0.003 A 
ATOM     14  N2  UNK A          65.823  16.204  47.257  0.00  0.00    -0.254 NA
ATOM     15  C12 UNK A          67.815  19.103  48.355  0.00  0.00     0.011 A 
ATOM     16  C16 UNK A          68.372  16.738  48.277  0.00  0.00     0.012 A 
ATOM     17  C13 UNK A          66.905  20.146  48.147  0.00  0.00     0.009 A 
ATOM     18  C15 UNK A          67.984  15.425  47.982  0.00  0.00     0.021 A 
ATOM     19  C14 UNK A          66.696  15.204  47.476  0.00  0.00     0.112 A 
BRANCH  11  20
ATOM     20  O1  UNK A          64.030  18.266  46.795  0.00  0.00    -0.358 OA
ATOM     21  H1  UNK A          63.918  18.753  45.964  0.00  0.00     0.218 HD
ENDBRANCH  11  20
ENDBRANCH   9  10
BRANCH   9  22
ATOM     22  N1  UNK A          63.427  20.925  48.255  0.00  0.00    -0.318 N 
ATOM     23  HN1 UNK A          62.561  21.240  47.837  0.00  0.00     0.149 HD
BRANCH  22  24
ATOM     24  C17 UNK A          63.302  20.167  49.420  0.00  0.00     0.118 A 
ATOM     25  C18 UNK A          63.954  20.583  50.596  0.00  0.00     0.044 A 
ATOM     26  C19 UNK A          63.862  19.788  51.751  0.00  0.00     0.008 A 
ATOM     27  C20 UNK A          63.121  18.593  51.692  0.00  0.00    -0.033 A 
ATOM     28  C21 UNK A          62.491  18.262  50.478  0.00  0.00     0.116 A 
ATOM     29  C22 UNK A          63.010  17.672  52.895  0.00  0.00     0.046 C 
ATOM     30  N3  UNK A          62.577  19.029  49.375  0.00  0.00    -0.241 NA
ENDBRANCH  22  24
ENDBRANCH   9  22
ENDBRANCH   5   9
TORSDOF 5
ENDMDL
MODEL 7
REMARK VINA RESULT:      -5.9     17.669     19.968
REMARK  5 active torsions:
REMARK  status: ('A' for Active; 'I' for Inactive)
REMARK    1  A    between atoms: C5_5  and  C7_9 
REMARK    2  A    between atoms: C7_9  and  C8_10 
REMARK    3  A    between atoms: C7_9  and  N1_16 
REMARK    4  A    between atoms: C9_11  and  O1_17 
REMARK    5  A    between atoms: N1_16  and  C17_22 
ROOT
ATOM      1  C1  UNK A          58.564  23.688  30.783  0.00  0.00     0.059 A 
ATOM      2  C2  UNK A          58.351  22.823  31.868  0.00  0.00     0.022 A 
ATOM      3  C3  UNK A          57.547  23.231  32.940  0.00  0.00     0.002 A 
ATOM      4  C4  UNK A          56.963  24.508  32.933  0.00  0.00     0.008 A 
ATOM      5  C5  UNK A          57.176  25.399  31.856  0.00  0.00    -0.003 A 
ATOM      6  C6  UNK A          57.978  24.972  30.771  0.00  0.00     0.065 A 
ATOM      7 Cl1  UNK A          59.568  23.131  29.456  0.00  0.00    -0.083 Cl
ATOM      8 Cl2  UNK A          58.255  26.017  29.385  0.00  0.00    -0.082 Cl
ENDROOT
BRANCH   5   9
ATOM      9  C7  UNK A          56.529  26.793  31.864  0.00  0.00     0.137 C 
BRANCH   9  10
ATOM     10  C8  UNK A          54.997  26.691  31.956  0.00  0.00     0.009 A 
ATOM     11  C9  UNK A          54.201  26.385  30.824  0.00  0.00     0.103 A 
ATOM     12  C10 UNK A          52.790  26.332  30.920  0.00  0.00     0.101 A 
ATOM     13  C11 UNK A          52.187  26.569  32.178  0.00  0.00     0.003 A 
ATOM     14  N2  UNK A          52.030  26.064  29.831  0.00  0.00    -0.254 NA
ATOM     15  C12 UNK A          52.972  26.863  33.303  0.00  0.00     0.011 A 
ATOM     16  C16 UNK A          50.787  26.512  32.296  0.00  0.00     0.012 A 
ATOM     17  C13 UNK A          54.365  26.932  33.192  0.00  0.00     0.009 A 
ATOM     18  C15 UNK A          50.025  26.230  31.155  0.00  0.00     0.021 A 
ATOM     19  C14 UNK A          50.690  26.016  29.941  0.00  0.00     0.112 A 
BRANCH  11  20
ATOM     20  O1  UNK A          54.790  26.151  29.609  0.00  0.00    -0.358 OA
ATOM     21  H1  UNK A          55.741  26.331  29.683  0.00  0.00     0.218 HD
ENDBRANCH  11  20
ENDBRANCH   9  10
BRANCH   9  22
ATOM     22  N1  UNK A          57.112  27.644  32.929  0.00  0.00    -0.318 N 
ATOM     23  HN1 UNK A          57.009  27.308  33.877  0.00  0.00     0.149 HD
BRANCH  22  24
ATOM     24  C17 UNK A          58.019  28.688  32.746  0.00  0.00     0.118 A 
ATOM     25  C18 UNK A          59.219  28.455  32.046  0.00  0.00     0.044 A 
ATOM     26  C19 UNK A          60.148  29.500  31.909  0.00  0.00     0.008 A 
ATOM     27  C20 UNK A          59.849  30.751  32.481  0.00  0.00    -0.033 A 
ATOM     28  C21 UNK A          58.620  30.897  33.150  0.00  0.00     0.116 A 
ATOM     29  C22 UNK A          60.826  31.912  32.397  0.00  0.00     0.046 C 
ATOM     30  N3  UNK A          57.730  29.895  33.275  0.00  0.00    -0.241 NA
ENDBRANCH  22  24
ENDBRANCH   9  22
ENDBRANCH   5   9
TORSDOF 5
ENDMDL
MODEL 8
REMARK VINA RESULT:      -5.8      6.720      9.207
REMARK  5 active torsions:
REMARK  status: ('A' for Active; 'I' for Inactive)
REMARK    1  A    between atoms: C5_5  and  C7_9 
REMARK    2  A    between atoms: C7_9  and  C8_10 
REMARK    3  A    between atoms: C7_9  and  N1_16 
REMARK    4  A    between atoms: C9_11  and  O1_17 
REMARK    5  A    between atoms: N1_16  and  C17_22 
ROOT
ATOM      1  C1  UNK A          70.373  17.676  48.899  0.00  0.00     0.059 A 
ATOM      2  C2  UNK A          70.892  17.803  47.601  0.00  0.00     0.022 A 
ATOM      3  C3  UNK A          70.107  17.451  46.496  0.00  0.00     0.002 A 
ATOM      4  C4  UNK A          68.805  16.962  46.687  0.00  0.00     0.008 A 
ATOM      5  C5  UNK A          68.267  16.814  47.987  0.00  0.00    -0.003 A 
ATOM      6  C6  UNK A          69.064  17.186  49.096  0.00  0.00     0.065 A 
ATOM      7 Cl1  UNK A          71.387  18.140  50.253  0.00  0.00    -0.083 Cl
ATOM      8 Cl2  UNK A          68.444  17.060  50.736  0.00  0.00    -0.082 Cl
ENDROOT
BRANCH   5   9
ATOM      9  C7  UNK A          66.841  16.278  48.179  0.00  0.00     0.137 C 
BRANCH   9  10
ATOM     10  C8  UNK A          65.821  17.428  48.244  0.00  0.00     0.009 A 
ATOM     11  C9  UNK A          65.413  18.129  47.081  0.00  0.00     0.103 A 
ATOM     12  C10 UNK A          64.501  19.209  47.165  0.00  0.00     0.101 A 
ATOM     13  C11 UNK A          63.986  19.562  48.434  0.00  0.00     0.003 A 
ATOM     14  N2  UNK A          64.132  19.892  46.055  0.00  0.00    -0.254 NA
ATOM     15  C12 UNK A          64.379  18.865  49.585  0.00  0.00     0.011 A 
ATOM     16  C16 UNK A          63.071  20.626  48.537  0.00  0.00     0.012 A 
ATOM     17  C13 UNK A          65.296  17.812  49.493  0.00  0.00     0.009 A 
ATOM     18  C15 UNK A          62.705  21.315  47.374  0.00  0.00     0.021 A 
ATOM     19  C14 UNK A          63.264  20.915  46.153  0.00  0.00     0.112 A 
BRANCH  11  20
ATOM     20  O1  UNK A          65.912  17.779  45.853  0.00  0.00    -0.358 OA
ATOM     21  H1  UNK A          65.722  16.840  45.696  0.00  0.00     0.218 HD
ENDBRANCH  11  20
ENDBRANCH   9  10
BRANCH   9  22
ATOM     22  N1  UNK A          66.505  15.274  47.142  0.00  0.00    -0.318 N 
ATOM     23  HN1 UNK A          66.689  15.540  46.184  0.00  0.00     0.149 HD
BRANCH  22  24
ATOM     24  C17 UNK A          66.241  13.921  47.359  0.00  0.00     0.118 A 
ATOM     25  C18 UNK A          65.998  13.458  48.666  0.00  0.00     0.044 A 
ATOM     26  C19 UNK A          65.781  12.087  48.881  0.00  0.00     0.008 A 
ATOM     27  C20 UNK A          65.818  11.216  47.776  0.00  0.00    -0.033 A 
ATOM     28  C21 UNK A          66.054  11.767  46.504  0.00  0.00     0.116 A 
ATOM     29  C22 UNK A          65.625   9.718  47.945  0.00  0.00     0.046 C 
ATOM     30  N3  UNK A          66.257  13.082  46.301  0.00  0.00    -0.241 NA
ENDBRANCH  22  24
ENDBRANCH   9  22
ENDBRANCH   5   9
TORSDOF 5
ENDMDL
MODEL 9
REMARK VINA RESULT:      -5.8      2.727      5.520
REMARK  5 active torsions:
REMARK  status: ('A' for Active; 'I' for Inactive)
REMARK    1  A    between atoms: C5_5  and  C7_9 
REMARK    2  A    between atoms: C7_9  and  C8_10 
REMARK    3  A    between atoms: C7_9  and  N1_16 
REMARK    4  A    between atoms: C9_11  and  O1_17 
REMARK    5  A    between atoms: N1_16  and  C17_22 
ROOT
ATOM      1  C1  UNK A          65.478  22.625  47.038  0.00  0.00     0.059 A 
ATOM      2  C2  UNK A          65.594  22.088  48.330  0.00  0.00     0.022 A 
ATOM      3  C3  UNK A          66.053  22.890  49.382  0.00  0.00     0.002 A 
ATOM      4  C4  UNK A          66.405  24.228  49.143  0.00  0.00     0.008 A 
ATOM      5  C5  UNK A          66.308  24.785  47.847  0.00  0.00    -0.003 A 
ATOM      6  C6  UNK A          65.830  23.970  46.793  0.00  0.00     0.065 A 
ATOM      7 Cl1  UNK A          64.888  21.588  45.752  0.00  0.00    -0.083 Cl
ATOM      8 Cl2  UNK A          65.652  24.610  45.166  0.00  0.00    -0.082 Cl
ENDROOT
BRANCH   5   9
ATOM      9  C7  UNK A          66.697  26.251  47.603  0.00  0.00     0.137 C 
BRANCH   9  10
ATOM     10  C8  UNK A          65.979  27.186  48.590  0.00  0.00     0.009 A 
ATOM     11  C9  UNK A          66.604  27.635  49.781  0.00  0.00     0.103 A 
ATOM     12  C10 UNK A          65.914  28.466  50.695  0.00  0.00     0.101 A 
ATOM     13  C11 UNK A          64.591  28.861  50.387  0.00  0.00     0.003 A 
ATOM     14  N2  UNK A          66.505  28.873  51.844  0.00  0.00    -0.254 NA
ATOM     15  C12 UNK A          63.972  28.428  49.205  0.00  0.00     0.011 A 
ATOM     16  C16 UNK A          63.891  29.694  51.278  0.00  0.00     0.012 A 
ATOM     17  C13 UNK A          64.657  27.590  48.317  0.00  0.00     0.009 A 
ATOM     18  C15 UNK A          64.526  30.103  52.458  0.00  0.00     0.021 A 
ATOM     19  C14 UNK A          65.835  29.664  52.702  0.00  0.00     0.112 A 
BRANCH  11  20
ATOM     20  O1  UNK A          67.888  27.254  50.072  0.00  0.00    -0.358 OA
ATOM     21  H1  UNK A          68.289  26.874  49.275  0.00  0.00     0.218 HD
ENDBRANCH  11  20
ENDBRANCH   9  10
BRANCH   9  22
ATOM     22  N1  UNK A          68.170  26.421  47.620  0.00  0.00    -0.318 N 
ATOM     23  HN1 UNK A          68.632  26.226  48.498  0.00  0.00     0.149 HD
BRANCH  22  24
ATOM     24  C17 UNK A          69.000  26.537  46.505  0.00  0.00     0.118 A 
ATOM     25  C18 UNK A          68.580  27.300  45.399  0.00  0.00     0.044 A 
ATOM     26  C19 UNK A          69.402  27.371  44.262  0.00  0.00     0.008 A 
ATOM     27  C20 UNK A          70.622  26.670  44.264  0.00  0.00    -0.033 A 
ATOM     28  C21 UNK A          70.968  25.944  45.418  0.00  0.00     0.116 A 
ATOM     29  C22 UNK A          71.540  26.678  43.053  0.00  0.00     0.046 C 
ATOM     30  N3  UNK A          70.180  25.882  46.508  0.00  0.00    -0.241 NA
ENDBRANCH  22  24
ENDBRANCH   9  22
ENDBRANCH   5   9
TORSDOF 5
ENDMDL
