MODEL 1
REMARK VINA RESULT:      -7.3      0.000      0.000
REMARK  7 active torsions:
REMARK  status: ('A' for Active; 'I' for Inactive)
REMARK    1  A    between atoms: C1_1  and  O1_7 
REMARK    2  A    between atoms: C3_3  and  O10_40 
REMARK    3  A    between atoms: C9_12  and  C10_13 
REMARK    4  A    between atoms: C13_16  and  O4_19 
REMARK    5  A    between atoms: O4_19  and  C16_20 
REMARK    6  A    between atoms: C17_21  and  O7_29 
REMARK    7  A    between atoms: C18_22  and  O5_24 
ROOT
ATOM      1  C1  UNK A          48.039  16.256  53.363  0.00  0.00     0.088 A 
ATOM      2  C2  UNK A          48.240  15.612  52.131  0.00  0.00     0.067 A 
ATOM      3  C3  UNK A          47.578  16.047  50.975  0.00  0.00     0.076 A 
ATOM      4  C4  UNK A          46.692  17.130  51.041  0.00  0.00     0.068 A 
ATOM      5  C5  UNK A          46.444  17.739  52.278  0.00  0.00     0.098 A 
ATOM      6  C6  UNK A          47.125  17.337  53.452  0.00  0.00     0.083 A 
ATOM      7  C7  UNK A          46.756  17.922  54.756  0.00  0.00     0.193 C 
ATOM      8  O2  UNK A          47.331  17.784  55.831  0.00  0.00    -0.289 OA
ATOM      9  C8  UNK A          45.480  18.456  54.744  0.00  0.00     0.087 C 
ATOM     10  O3  UNK A          45.401  18.622  52.337  0.00  0.00    -0.309 OA
ATOM     11  C9  UNK A          44.819  18.723  53.562  0.00  0.00     0.093 C 
ENDROOT
BRANCH   1  12
ATOM     12  O1  UNK A          48.679  15.747  54.461  0.00  0.00    -0.360 OA
ATOM     13  H1  UNK A          49.223  14.979  54.186  0.00  0.00     0.218 HD
ENDBRANCH   1  12
BRANCH   3  14
ATOM     14  O10 UNK A          47.745  15.375  49.799  0.00  0.00    -0.361 OA
ATOM     15  H10 UNK A          47.730  14.415  49.978  0.00  0.00     0.218 HD
ENDBRANCH   3  14
BRANCH  11  16
ATOM     16  C10 UNK A          43.361  18.680  53.586  0.00  0.00     0.006 A 
ATOM     17  C11 UNK A          42.628  18.741  54.783  0.00  0.00     0.013 A 
ATOM     18  C12 UNK A          41.221  18.643  54.745  0.00  0.00     0.035 A 
ATOM     19  C13 UNK A          40.543  18.525  53.514  0.00  0.00     0.082 A 
ATOM     20  C14 UNK A          41.273  18.590  52.314  0.00  0.00     0.035 A 
ATOM     21  C15 UNK A          42.675  18.647  52.352  0.00  0.00     0.013 A 
BRANCH  19  22
ATOM     22  O4  UNK A          39.208  18.140  53.512  0.00  0.00    -0.305 OA
BRANCH  22  23
ATOM     23  C16 UNK A          38.380  18.802  52.624  0.00  0.00     0.143 C 
ATOM     24  C17 UNK A          37.978  20.141  52.867  0.00  0.00     0.119 C 
ATOM     25  C21 UNK A          37.006  20.739  52.024  0.00  0.00     0.086 C 
ATOM     26  C20 UNK A          36.380  19.929  51.069  0.00  0.00     0.099 C 
ATOM     27  C22 UNK A          36.706  22.191  51.980  0.00  0.00     0.193 C 
ATOM     28  C19 UNK A          36.826  18.649  50.766  0.00  0.00     0.071 C 
ATOM     29  O6  UNK A          35.417  20.465  50.288  0.00  0.00    -0.309 OA
ATOM     30  C18 UNK A          37.869  18.099  51.507  0.00  0.00     0.108 C 
ATOM     31  C24 UNK A          35.773  21.685  49.808  0.00  0.00     0.093 C 
ATOM     32  C25 UNK A          35.752  21.874  48.438  0.00  0.00     0.006 A 
ATOM     33  C23 UNK A          36.260  22.610  50.726  0.00  0.00     0.087 C 
ATOM     34  C26 UNK A          36.236  23.009  47.838  0.00  0.00     0.015 A 
ATOM     35  C30 UNK A          35.312  20.828  47.658  0.00  0.00     0.015 A 
ATOM     36  C27 UNK A          36.306  23.067  46.455  0.00  0.00     0.053 A 
ATOM     37  C28 UNK A          35.896  22.013  45.683  0.00  0.00     0.178 A 
ATOM     38  C29 UNK A          35.389  20.899  46.283  0.00  0.00     0.053 A 
ATOM     39  O9  UNK A          35.987  22.061  44.461  0.00  0.00    -0.290 OA
ATOM     40  O8  UNK A          37.066  23.026  52.804  0.00  0.00    -0.289 OA
BRANCH  24  41
ATOM     41  O7  UNK A          38.549  20.850  53.890  0.00  0.00    -0.357 OA
ATOM     42  H7  UNK A          39.520  20.847  53.773  0.00  0.00     0.218 HD
ENDBRANCH  24  41
BRANCH  30  43
ATOM     43  O5  UNK A          38.364  16.893  51.092  0.00  0.00    -0.358 OA
ATOM     44  H5  UNK A          38.636  16.380  51.876  0.00  0.00     0.218 HD
ENDBRANCH  30  43
ENDBRANCH  22  23
ENDBRANCH  19  22
ENDBRANCH  11  16
TORSDOF 7
ENDMDL
MODEL 2
REMARK VINA RESULT:      -7.3      1.659      2.950
REMARK  7 active torsions:
REMARK  status: ('A' for Active; 'I' for Inactive)
REMARK    1  A    between atoms: C1_1  and  O1_7 
REMARK    2  A    between atoms: C3_3  and  O10_40 
REMARK    3  A    between atoms: C9_12  and  C10_13 
REMARK    4  A    between atoms: C13_16  and  O4_19 
REMARK    5  A    between atoms: O4_19  and  C16_20 
REMARK    6  A    between atoms: C17_21  and  O7_29 
REMARK    7  A    between atoms: C18_22  and  O5_24 
ROOT
ATOM      1  C1  UNK A          47.854  16.193  54.129  0.00  0.00     0.088 A 
ATOM      2  C2  UNK A          48.298  15.628  52.923  0.00  0.00     0.067 A 
ATOM      3  C3  UNK A          47.891  16.152  51.688  0.00  0.00     0.076 A 
ATOM      4  C4  UNK A          47.018  17.248  51.646  0.00  0.00     0.068 A 
ATOM      5  C5  UNK A          46.526  17.778  52.846  0.00  0.00     0.098 A 
ATOM      6  C6  UNK A          46.949  17.285  54.104  0.00  0.00     0.083 A 
ATOM      7  C7  UNK A          46.325  17.791  55.342  0.00  0.00     0.193 C 
ATOM      8  O2  UNK A          46.666  17.569  56.500  0.00  0.00    -0.289 OA
ATOM      9  C8  UNK A          45.082  18.351  55.107  0.00  0.00     0.087 C 
ATOM     10  O3  UNK A          45.500  18.678  52.752  0.00  0.00    -0.309 OA
ATOM     11  C9  UNK A          44.680  18.710  53.836  0.00  0.00     0.093 C 
ENDROOT
BRANCH   1  12
ATOM     12  O1  UNK A          48.251  15.599  55.296  0.00  0.00    -0.360 OA
ATOM     13  H1  UNK A          47.474  15.177  55.720  0.00  0.00     0.218 HD
ENDBRANCH   1  12
BRANCH   3  14
ATOM     14  O10 UNK A          48.291  15.557  50.528  0.00  0.00    -0.361 OA
ATOM     15  H10 UNK A          49.256  15.669  50.431  0.00  0.00     0.218 HD
ENDBRANCH   3  14
BRANCH  11  16
ATOM     16  C10 UNK A          43.247  18.698  53.559  0.00  0.00     0.006 A 
ATOM     17  C11 UNK A          42.736  18.635  52.252  0.00  0.00     0.013 A 
ATOM     18  C12 UNK A          41.341  18.678  52.046  0.00  0.00     0.035 A 
ATOM     19  C13 UNK A          40.456  18.743  53.141  0.00  0.00     0.082 A 
ATOM     20  C14 UNK A          40.968  18.680  54.449  0.00  0.00     0.035 A 
ATOM     21  C15 UNK A          42.357  18.678  54.655  0.00  0.00     0.013 A 
BRANCH  19  22
ATOM     22  O4  UNK A          39.126  19.076  52.916  0.00  0.00    -0.305 OA
BRANCH  22  23
ATOM     23  C16 UNK A          38.740  19.195  51.594  0.00  0.00     0.143 C 
ATOM     24  C17 UNK A          38.351  18.053  50.845  0.00  0.00     0.119 C 
ATOM     25  C21 UNK A          38.112  18.182  49.453  0.00  0.00     0.086 C 
ATOM     26  C20 UNK A          38.408  19.410  48.849  0.00  0.00     0.099 C 
ATOM     27  C22 UNK A          37.436  17.161  48.615  0.00  0.00     0.193 C 
ATOM     28  C19 UNK A          38.702  20.552  49.582  0.00  0.00     0.071 C 
ATOM     29  O6  UNK A          38.234  19.541  47.516  0.00  0.00    -0.309 OA
ATOM     30  C18 UNK A          38.814  20.462  50.967  0.00  0.00     0.108 C 
ATOM     31  C24 UNK A          37.053  19.009  47.103  0.00  0.00     0.093 C 
ATOM     32  C25 UNK A          36.184  19.825  46.403  0.00  0.00     0.006 A 
ATOM     33  C23 UNK A          36.754  17.720  47.534  0.00  0.00     0.087 C 
ATOM     34  C26 UNK A          34.908  19.441  46.073  0.00  0.00     0.015 A 
ATOM     35  C30 UNK A          36.603  21.106  46.120  0.00  0.00     0.015 A 
ATOM     36  C27 UNK A          34.052  20.364  45.493  0.00  0.00     0.053 A 
ATOM     37  C28 UNK A          34.462  21.645  45.241  0.00  0.00     0.178 A 
ATOM     38  C29 UNK A          35.739  22.013  45.543  0.00  0.00     0.053 A 
ATOM     39  O9  UNK A          33.689  22.464  44.753  0.00  0.00    -0.290 OA
ATOM     40  O8  UNK A          37.211  15.999  48.938  0.00  0.00    -0.289 OA
BRANCH  24  41
ATOM     41  O7  UNK A          38.184  16.849  51.476  0.00  0.00    -0.357 OA
ATOM     42  H7  UNK A          38.688  16.859  52.315  0.00  0.00     0.218 HD
ENDBRANCH  24  41
BRANCH  30  43
ATOM     43  O5  UNK A          38.974  21.630  51.660  0.00  0.00    -0.358 OA
ATOM     44  H5  UNK A          38.366  21.628  52.422  0.00  0.00     0.218 HD
ENDBRANCH  30  43
ENDBRANCH  22  23
ENDBRANCH  19  22
ENDBRANCH  11  16
TORSDOF 7
ENDMDL
MODEL 3
REMARK VINA RESULT:      -7.2     16.139     21.512
REMARK  7 active torsions:
REMARK  status: ('A' for Active; 'I' for Inactive)
REMARK    1  A    between atoms: C1_1  and  O1_7 
REMARK    2  A    between atoms: C3_3  and  O10_40 
REMARK    3  A    between atoms: C9_12  and  C10_13 
REMARK    4  A    between atoms: C13_16  and  O4_19 
REMARK    5  A    between atoms: O4_19  and  C16_20 
REMARK    6  A    between atoms: C17_21  and  O7_29 
REMARK    7  A    between atoms: C18_22  and  O5_24 
ROOT
ATOM      1  C1  UNK A          65.982  17.907  46.878  0.00  0.00     0.088 A 
ATOM      2  C2  UNK A          67.315  17.536  47.119  0.00  0.00     0.067 A 
ATOM      3  C3  UNK A          67.709  17.034  48.368  0.00  0.00     0.076 A 
ATOM      4  C4  UNK A          66.769  16.907  49.399  0.00  0.00     0.068 A 
ATOM      5  C5  UNK A          65.452  17.329  49.182  0.00  0.00     0.098 A 
ATOM      6  C6  UNK A          65.026  17.810  47.920  0.00  0.00     0.083 A 
ATOM      7  C7  UNK A          63.662  18.352  47.760  0.00  0.00     0.193 C 
ATOM      8  O2  UNK A          63.101  18.677  46.718  0.00  0.00    -0.289 OA
ATOM      9  C8  UNK A          63.115  18.751  48.966  0.00  0.00     0.087 C 
ATOM     10  O3  UNK A          64.639  17.414  50.278  0.00  0.00    -0.309 OA
ATOM     11  C9  UNK A          63.646  18.338  50.172  0.00  0.00     0.093 C 
ENDROOT
BRANCH   1  12
ATOM     12  O1  UNK A          65.679  18.437  45.653  0.00  0.00    -0.360 OA
ATOM     13  H1  UNK A          65.895  19.393  45.657  0.00  0.00     0.218 HD
ENDBRANCH   1  12
BRANCH   3  14
ATOM     14  O10 UNK A          69.019  16.729  48.598  0.00  0.00    -0.361 OA
ATOM     15  H10 UNK A          69.287  16.007  47.999  0.00  0.00     0.218 HD
ENDBRANCH   3  14
BRANCH  11  16
ATOM     16  C10 UNK A          63.461  19.218  51.321  0.00  0.00     0.006 A 
ATOM     17  C11 UNK A          62.849  18.784  52.508  0.00  0.00     0.013 A 
ATOM     18  C12 UNK A          62.653  19.696  53.566  0.00  0.00     0.035 A 
ATOM     19  C13 UNK A          63.101  21.028  53.456  0.00  0.00     0.082 A 
ATOM     20  C14 UNK A          63.822  21.424  52.316  0.00  0.00     0.035 A 
ATOM     21  C15 UNK A          63.983  20.528  51.247  0.00  0.00     0.013 A 
BRANCH  19  22
ATOM     22  O4  UNK A          62.645  21.972  54.369  0.00  0.00    -0.305 OA
BRANCH  22  23
ATOM     23  C16 UNK A          61.376  21.769  54.878  0.00  0.00     0.143 C 
ATOM     24  C17 UNK A          60.226  22.067  54.102  0.00  0.00     0.119 C 
ATOM     25  C21 UNK A          58.943  21.999  54.705  0.00  0.00     0.086 C 
ATOM     26  C20 UNK A          58.878  21.774  56.085  0.00  0.00     0.099 C 
ATOM     27  C22 UNK A          57.660  22.002  53.959  0.00  0.00     0.193 C 
ATOM     28  C19 UNK A          59.986  21.395  56.833  0.00  0.00     0.071 C 
ATOM     29  O6  UNK A          57.670  21.753  56.688  0.00  0.00    -0.309 OA
ATOM     30  C18 UNK A          61.234  21.336  56.219  0.00  0.00     0.108 C 
ATOM     31  C24 UNK A          56.763  21.027  55.982  0.00  0.00     0.093 C 
ATOM     32  C25 UNK A          56.119  19.989  56.630  0.00  0.00     0.006 A 
ATOM     33  C23 UNK A          56.651  21.302  54.623  0.00  0.00     0.087 C 
ATOM     34  C26 UNK A          55.302  19.100  55.977  0.00  0.00     0.015 A 
ATOM     35  C30 UNK A          56.398  19.802  57.965  0.00  0.00     0.015 A 
ATOM     36  C27 UNK A          54.803  18.007  56.667  0.00  0.00     0.053 A 
ATOM     37  C28 UNK A          55.106  17.807  57.986  0.00  0.00     0.178 A 
ATOM     38  C29 UNK A          55.894  18.709  58.638  0.00  0.00     0.053 A 
ATOM     39  O9  UNK A          54.683  16.822  58.583  0.00  0.00    -0.290 OA
ATOM     40  O8  UNK A          57.515  22.298  52.778  0.00  0.00    -0.289 OA
BRANCH  24  41
ATOM     41  O7  UNK A          60.361  22.390  52.778  0.00  0.00    -0.357 OA
ATOM     42  H7  UNK A          59.518  22.769  52.457  0.00  0.00     0.218 HD
ENDBRANCH  24  41
BRANCH  30  43
ATOM     43  O5  UNK A          62.272  20.834  56.955  0.00  0.00    -0.358 OA
ATOM     44  H5  UNK A          62.360  19.882  56.763  0.00  0.00     0.218 HD
ENDBRANCH  30  43
ENDBRANCH  22  23
ENDBRANCH  19  22
ENDBRANCH  11  16
TORSDOF 7
ENDMDL
MODEL 4
REMARK VINA RESULT:      -7.1     14.235     20.081
REMARK  7 active torsions:
REMARK  status: ('A' for Active; 'I' for Inactive)
REMARK    1  A    between atoms: C1_1  and  O1_7 
REMARK    2  A    between atoms: C3_3  and  O10_40 
REMARK    3  A    between atoms: C9_12  and  C10_13 
REMARK    4  A    between atoms: C13_16  and  O4_19 
REMARK    5  A    between atoms: O4_19  and  C16_20 
REMARK    6  A    between atoms: C17_21  and  O7_29 
REMARK    7  A    between atoms: C18_22  and  O5_24 
ROOT
ATOM      1  C1  UNK A          52.499  13.850  54.751  0.00  0.00     0.088 A 
ATOM      2  C2  UNK A          52.954  13.248  53.566  0.00  0.00     0.067 A 
ATOM      3  C3  UNK A          54.294  13.360  53.170  0.00  0.00     0.076 A 
ATOM      4  C4  UNK A          55.197  14.089  53.954  0.00  0.00     0.068 A 
ATOM      5  C5  UNK A          54.736  14.739  55.106  0.00  0.00     0.098 A 
ATOM      6  C6  UNK A          53.394  14.614  55.541  0.00  0.00     0.083 A 
ATOM      7  C7  UNK A          52.916  15.404  56.693  0.00  0.00     0.193 C 
ATOM      8  O2  UNK A          51.838  15.312  57.271  0.00  0.00    -0.289 OA
ATOM      9  C8  UNK A          53.707  16.514  56.927  0.00  0.00     0.087 C 
ATOM     10  O3  UNK A          55.588  15.629  55.699  0.00  0.00    -0.309 OA
ATOM     11  C9  UNK A          54.970  16.631  56.381  0.00  0.00     0.093 C 
ENDROOT
BRANCH   1  12
ATOM     12  O1  UNK A          51.167  13.744  55.050  0.00  0.00    -0.360 OA
ATOM     13  H1  UNK A          51.037  12.994  55.667  0.00  0.00     0.218 HD
ENDBRANCH   1  12
BRANCH   3  14
ATOM     14  O10 UNK A          54.704  12.813  51.990  0.00  0.00    -0.361 OA
ATOM     15  H10 UNK A          54.189  13.209  51.261  0.00  0.00     0.218 HD
ENDBRANCH   3  14
BRANCH  11  16
ATOM     16  C10 UNK A          55.473  17.979  56.138  0.00  0.00     0.006 A 
ATOM     17  C11 UNK A          54.904  19.112  56.742  0.00  0.00     0.013 A 
ATOM     18  C12 UNK A          55.402  20.394  56.428  0.00  0.00     0.035 A 
ATOM     19  C13 UNK A          56.490  20.544  55.544  0.00  0.00     0.082 A 
ATOM     20  C14 UNK A          57.133  19.401  55.040  0.00  0.00     0.035 A 
ATOM     21  C15 UNK A          56.614  18.126  55.321  0.00  0.00     0.013 A 
BRANCH  19  22
ATOM     22  O4  UNK A          56.771  21.802  55.026  0.00  0.00    -0.305 OA
BRANCH  22  23
ATOM     23  C16 UNK A          58.103  22.170  54.997  0.00  0.00     0.143 C 
ATOM     24  C17 UNK A          58.789  22.513  56.191  0.00  0.00     0.119 C 
ATOM     25  C21 UNK A          60.105  23.036  56.112  0.00  0.00     0.086 C 
ATOM     26  C20 UNK A          60.621  23.323  54.843  0.00  0.00     0.099 C 
ATOM     27  C22 UNK A          61.031  23.166  57.264  0.00  0.00     0.193 C 
ATOM     28  C19 UNK A          59.998  22.911  53.672  0.00  0.00     0.071 C 
ATOM     29  O6  UNK A          61.854  23.866  54.745  0.00  0.00    -0.309 OA
ATOM     30  C18 UNK A          58.758  22.280  53.747  0.00  0.00     0.108 C 
ATOM     31  C24 UNK A          62.747  23.247  55.562  0.00  0.00     0.093 C 
ATOM     32  C25 UNK A          63.896  22.731  54.992  0.00  0.00     0.006 A 
ATOM     33  C23 UNK A          62.372  23.065  56.889  0.00  0.00     0.087 C 
ATOM     34  C26 UNK A          64.789  21.957  55.691  0.00  0.00     0.015 A 
ATOM     35  C30 UNK A          64.084  22.934  53.642  0.00  0.00     0.015 A 
ATOM     36  C27 UNK A          65.843  21.363  55.016  0.00  0.00     0.053 A 
ATOM     37  C28 UNK A          66.010  21.542  53.669  0.00  0.00     0.178 A 
ATOM     38  C29 UNK A          65.138  22.336  52.985  0.00  0.00     0.053 A 
ATOM     39  O9  UNK A          66.930  20.990  53.074  0.00  0.00    -0.290 OA
ATOM     40  O8  UNK A          60.726  23.073  58.448  0.00  0.00    -0.289 OA
BRANCH  24  41
ATOM     41  O7  UNK A          58.187  22.312  57.405  0.00  0.00    -0.357 OA
ATOM     42  H7  UNK A          58.629  21.565  57.857  0.00  0.00     0.218 HD
ENDBRANCH  24  41
BRANCH  30  43
ATOM     43  O5  UNK A          58.242  21.774  52.585  0.00  0.00    -0.358 OA
ATOM     44  H5  UNK A          57.462  21.230  52.800  0.00  0.00     0.218 HD
ENDBRANCH  30  43
ENDBRANCH  22  23
ENDBRANCH  19  22
ENDBRANCH  11  16
TORSDOF 7
ENDMDL
MODEL 5
REMARK VINA RESULT:      -7.0     16.199     21.222
REMARK  7 active torsions:
REMARK  status: ('A' for Active; 'I' for Inactive)
REMARK    1  A    between atoms: C1_1  and  O1_7 
REMARK    2  A    between atoms: C3_3  and  O10_40 
REMARK    3  A    between atoms: C9_12  and  C10_13 
REMARK    4  A    between atoms: C13_16  and  O4_19 
REMARK    5  A    between atoms: O4_19  and  C16_20 
REMARK    6  A    between atoms: C17_21  and  O7_29 
REMARK    7  A    between atoms: C18_22  and  O5_24 
ROOT
ATOM      1  C1  UNK A          63.566  20.246  46.819  0.00  0.00     0.088 A 
ATOM      2  C2  UNK A          63.980  21.422  46.171  0.00  0.00     0.067 A 
ATOM      3  C3  UNK A          64.862  22.315  46.795  0.00  0.00     0.076 A 
ATOM      4  C4  UNK A          65.334  22.047  48.086  0.00  0.00     0.068 A 
ATOM      5  C5  UNK A          64.879  20.905  48.759  0.00  0.00     0.098 A 
ATOM      6  C6  UNK A          64.013  19.974  48.136  0.00  0.00     0.083 A 
ATOM      7  C7  UNK A          63.465  18.844  48.913  0.00  0.00     0.193 C 
ATOM      8  O2  UNK A          62.820  17.888  48.495  0.00  0.00    -0.289 OA
ATOM      9  C8  UNK A          63.495  19.086  50.275  0.00  0.00     0.087 C 
ATOM     10  O3  UNK A          65.172  20.813  50.092  0.00  0.00    -0.309 OA
ATOM     11  C9  UNK A          64.277  20.087  50.815  0.00  0.00     0.093 C 
ENDROOT
BRANCH   1  12
ATOM     12  O1  UNK A          62.664  19.445  46.172  0.00  0.00    -0.360 OA
ATOM     13  H1  UNK A          62.841  19.478  45.209  0.00  0.00     0.218 HD
ENDBRANCH   1  12
BRANCH   3  14
ATOM     14  O10 UNK A          65.210  23.477  46.171  0.00  0.00    -0.361 OA
ATOM     15  H10 UNK A          65.574  23.267  45.289  0.00  0.00     0.218 HD
ENDBRANCH   3  14
BRANCH  11  16
ATOM     16  C10 UNK A          63.829  20.684  52.068  0.00  0.00     0.006 A 
ATOM     17  C11 UNK A          62.926  20.036  52.928  0.00  0.00     0.013 A 
ATOM     18  C12 UNK A          62.491  20.687  54.102  0.00  0.00     0.035 A 
ATOM     19  C13 UNK A          62.984  21.965  54.437  0.00  0.00     0.082 A 
ATOM     20  C14 UNK A          63.978  22.555  53.638  0.00  0.00     0.035 A 
ATOM     21  C15 UNK A          64.383  21.925  52.450  0.00  0.00     0.013 A 
BRANCH  19  22
ATOM     22  O4  UNK A          62.335  22.702  55.420  0.00  0.00    -0.305 OA
BRANCH  22  23
ATOM     23  C16 UNK A          61.067  22.274  55.771  0.00  0.00     0.143 C 
ATOM     24  C17 UNK A          59.953  22.542  54.934  0.00  0.00     0.119 C 
ATOM     25  C21 UNK A          58.647  22.232  55.393  0.00  0.00     0.086 C 
ATOM     26  C20 UNK A          58.503  21.800  56.716  0.00  0.00     0.099 C 
ATOM     27  C22 UNK A          57.439  22.190  54.533  0.00  0.00     0.193 C 
ATOM     28  C19 UNK A          59.588  21.452  57.511  0.00  0.00     0.071 C 
ATOM     29  O6  UNK A          57.265  21.544  57.190  0.00  0.00    -0.309 OA
ATOM     30  C18 UNK A          60.878  21.635  57.019  0.00  0.00     0.108 C 
ATOM     31  C24 UNK A          56.522  20.826  56.307  0.00  0.00     0.093 C 
ATOM     32  C25 UNK A          55.972  19.634  56.741  0.00  0.00     0.006 A 
ATOM     33  C23 UNK A          56.483  21.283  54.993  0.00  0.00     0.087 C 
ATOM     34  C26 UNK A          55.336  18.759  55.897  0.00  0.00     0.015 A 
ATOM     35  C30 UNK A          56.166  19.287  58.060  0.00  0.00     0.015 A 
ATOM     36  C27 UNK A          54.934  17.523  56.379  0.00  0.00     0.053 A 
ATOM     37  C28 UNK A          55.155  17.170  57.683  0.00  0.00     0.178 A 
ATOM     38  C29 UNK A          55.761  18.054  58.525  0.00  0.00     0.053 A 
ATOM     39  O9  UNK A          54.821  16.063  58.095  0.00  0.00    -0.290 OA
ATOM     40  O8  UNK A          57.349  22.637  53.394  0.00  0.00    -0.289 OA
BRANCH  24  41
ATOM     41  O7  UNK A          60.149  23.071  53.685  0.00  0.00    -0.357 OA
ATOM     42  H7  UNK A          60.589  23.940  53.776  0.00  0.00     0.218 HD
ENDBRANCH  24  41
BRANCH  30  43
ATOM     43  O5  UNK A          61.912  21.158  57.779  0.00  0.00    -0.358 OA
ATOM     44  H5  UNK A          62.751  21.349  57.320  0.00  0.00     0.218 HD
ENDBRANCH  30  43
ENDBRANCH  22  23
ENDBRANCH  19  22
ENDBRANCH  11  16
TORSDOF 7
ENDMDL
MODEL 6
REMARK VINA RESULT:      -7.0     22.752     28.760
REMARK  7 active torsions:
REMARK  status: ('A' for Active; 'I' for Inactive)
REMARK    1  A    between atoms: C1_1  and  O1_7 
REMARK    2  A    between atoms: C3_3  and  O10_40 
REMARK    3  A    between atoms: C9_12  and  C10_13 
REMARK    4  A    between atoms: C13_16  and  O4_19 
REMARK    5  A    between atoms: O4_19  and  C16_20 
REMARK    6  A    between atoms: C17_21  and  O7_29 
REMARK    7  A    between atoms: C18_22  and  O5_24 
ROOT
ATOM      1  C1  UNK A          63.745  22.742  46.105  0.00  0.00     0.088 A 
ATOM      2  C2  UNK A          62.642  22.102  45.519  0.00  0.00     0.067 A 
ATOM      3  C3  UNK A          62.278  20.802  45.897  0.00  0.00     0.076 A 
ATOM      4  C4  UNK A          63.027  20.119  46.865  0.00  0.00     0.068 A 
ATOM      5  C5  UNK A          64.162  20.732  47.411  0.00  0.00     0.098 A 
ATOM      6  C6  UNK A          64.529  22.055  47.067  0.00  0.00     0.083 A 
ATOM      7  C7  UNK A          65.793  22.625  47.574  0.00  0.00     0.193 C 
ATOM      8  O2  UNK A          66.184  23.785  47.480  0.00  0.00    -0.289 OA
ATOM      9  C8  UNK A          66.692  21.645  47.951  0.00  0.00     0.087 C 
ATOM     10  O3  UNK A          64.991  19.944  48.161  0.00  0.00    -0.309 OA
ATOM     11  C9  UNK A          66.293  20.340  48.164  0.00  0.00     0.093 C 
ENDROOT
BRANCH   1  12
ATOM     12  O1  UNK A          64.074  23.991  45.652  0.00  0.00    -0.360 OA
ATOM     13  H1  UNK A          63.253  24.513  45.532  0.00  0.00     0.218 HD
ENDBRANCH   1  12
BRANCH   3  14
ATOM     14  O10 UNK A          61.235  20.177  45.278  0.00  0.00    -0.361 OA
ATOM     15  H10 UNK A          61.584  19.458  44.718  0.00  0.00     0.218 HD
ENDBRANCH   3  14
BRANCH  11  16
ATOM     16  C10 UNK A          67.284  19.292  47.947  0.00  0.00     0.006 A 
ATOM     17  C11 UNK A          67.022  18.165  47.151  0.00  0.00     0.013 A 
ATOM     18  C12 UNK A          68.004  17.160  47.020  0.00  0.00     0.035 A 
ATOM     19  C13 UNK A          69.258  17.297  47.649  0.00  0.00     0.082 A 
ATOM     20  C14 UNK A          69.559  18.483  48.341  0.00  0.00     0.035 A 
ATOM     21  C15 UNK A          68.569  19.465  48.505  0.00  0.00     0.013 A 
BRANCH  19  22
ATOM     22  O4  UNK A          70.086  16.186  47.752  0.00  0.00    -0.305 OA
BRANCH  22  23
ATOM     23  C16 UNK A          69.499  14.958  47.509  0.00  0.00     0.143 C 
ATOM     24  C17 UNK A          69.610  14.338  46.237  0.00  0.00     0.119 C 
ATOM     25  C21 UNK A          68.868  13.159  45.970  0.00  0.00     0.086 C 
ATOM     26  C20 UNK A          67.944  12.735  46.932  0.00  0.00     0.099 C 
ATOM     27  C22 UNK A          69.100  12.261  44.813  0.00  0.00     0.193 C 
ATOM     28  C19 UNK A          67.891  13.279  48.209  0.00  0.00     0.071 C 
ATOM     29  O6  UNK A          67.192  11.642  46.679  0.00  0.00    -0.309 OA
ATOM     30  C18 UNK A          68.711  14.361  48.522  0.00  0.00     0.108 C 
ATOM     31  C24 UNK A          67.930  10.627  46.158  0.00  0.00     0.093 C 
ATOM     32  C25 UNK A          67.902   9.406  46.806  0.00  0.00     0.006 A 
ATOM     33  C23 UNK A          68.762  10.935  45.086  0.00  0.00     0.087 C 
ATOM     34  C26 UNK A          68.722   8.362  46.459  0.00  0.00     0.015 A 
ATOM     35  C30 UNK A          67.077   9.287  47.903  0.00  0.00     0.015 A 
ATOM     36  C27 UNK A          68.732   7.219  47.242  0.00  0.00     0.053 A 
ATOM     37  C28 UNK A          67.934   7.115  48.349  0.00  0.00     0.178 A 
ATOM     38  C29 UNK A          67.099   8.143  48.673  0.00  0.00     0.053 A 
ATOM     39  O9  UNK A          67.969   6.111  49.053  0.00  0.00    -0.290 OA
ATOM     40  O8  UNK A          69.776  12.521  43.823  0.00  0.00    -0.289 OA
BRANCH  24  41
ATOM     41  O7  UNK A          70.451  14.866  45.293  0.00  0.00    -0.357 OA
ATOM     42  H7  UNK A          69.931  15.082  44.493  0.00  0.00     0.218 HD
ENDBRANCH  24  41
BRANCH  30  43
ATOM     43  O5  UNK A          68.724  14.781  49.824  0.00  0.00    -0.358 OA
ATOM     44  H5  UNK A          67.804  14.886  50.128  0.00  0.00     0.218 HD
ENDBRANCH  30  43
ENDBRANCH  22  23
ENDBRANCH  19  22
ENDBRANCH  11  16
TORSDOF 7
ENDMDL
MODEL 7
REMARK VINA RESULT:      -7.0     21.984     25.145
REMARK  7 active torsions:
REMARK  status: ('A' for Active; 'I' for Inactive)
REMARK    1  A    between atoms: C1_1  and  O1_7 
REMARK    2  A    between atoms: C3_3  and  O10_40 
REMARK    3  A    between atoms: C9_12  and  C10_13 
REMARK    4  A    between atoms: C13_16  and  O4_19 
REMARK    5  A    between atoms: O4_19  and  C16_20 
REMARK    6  A    between atoms: C17_21  and  O7_29 
REMARK    7  A    between atoms: C18_22  and  O5_24 
ROOT
ATOM      1  C1  UNK A          60.526   9.880  52.236  0.00  0.00     0.088 A 
ATOM      2  C2  UNK A          59.772   9.525  51.106  0.00  0.00     0.067 A 
ATOM      3  C3  UNK A          60.398   9.093  49.929  0.00  0.00     0.076 A 
ATOM      4  C4  UNK A          61.796   9.021  49.865  0.00  0.00     0.068 A 
ATOM      5  C5  UNK A          62.554   9.429  50.971  0.00  0.00     0.098 A 
ATOM      6  C6  UNK A          61.942   9.839  52.179  0.00  0.00     0.083 A 
ATOM      7  C7  UNK A          62.768  10.369  53.282  0.00  0.00     0.193 C 
ATOM      8  O2  UNK A          62.413  10.636  54.425  0.00  0.00    -0.289 OA
ATOM      9  C8  UNK A          63.993  10.832  52.837  0.00  0.00     0.087 C 
ATOM     10  O3  UNK A          63.901   9.572  50.779  0.00  0.00    -0.309 OA
ATOM     11  C9  UNK A          64.490  10.487  51.596  0.00  0.00     0.093 C 
ENDROOT
BRANCH   1  12
ATOM     12  O1  UNK A          59.851  10.342  53.334  0.00  0.00    -0.360 OA
ATOM     13  H1  UNK A          59.310   9.614  53.706  0.00  0.00     0.218 HD
ENDBRANCH   1  12
BRANCH   3  14
ATOM     14  O10 UNK A          59.651   8.804  48.825  0.00  0.00    -0.361 OA
ATOM     15  H10 UNK A          59.560   9.612  48.283  0.00  0.00     0.218 HD
ENDBRANCH   3  14
BRANCH  11  16
ATOM     16  C10 UNK A          65.401  11.428  50.954  0.00  0.00     0.006 A 
ATOM     17  C11 UNK A          66.734  11.585  51.370  0.00  0.00     0.013 A 
ATOM     18  C12 UNK A          67.552  12.549  50.743  0.00  0.00     0.035 A 
ATOM     19  C13 UNK A          67.054  13.327  49.677  0.00  0.00     0.082 A 
ATOM     20  C14 UNK A          65.761  13.079  49.185  0.00  0.00     0.035 A 
ATOM     21  C15 UNK A          64.934  12.148  49.833  0.00  0.00     0.013 A 
BRANCH  19  22
ATOM     22  O4  UNK A          67.762  14.453  49.276  0.00  0.00    -0.305 OA
BRANCH  22  23
ATOM     23  C16 UNK A          67.010  15.564  48.945  0.00  0.00     0.143 C 
ATOM     24  C17 UNK A          66.384  16.344  49.952  0.00  0.00     0.119 C 
ATOM     25  C21 UNK A          65.492  17.381  49.576  0.00  0.00     0.086 C 
ATOM     26  C20 UNK A          65.159  17.500  48.222  0.00  0.00     0.099 C 
ATOM     27  C22 UNK A          64.999  18.442  50.490  0.00  0.00     0.193 C 
ATOM     28  C19 UNK A          65.829  16.804  47.224  0.00  0.00     0.071 C 
ATOM     29  O6  UNK A          64.275  18.449  47.847  0.00  0.00    -0.309 OA
ATOM     30  C18 UNK A          66.800  15.871  47.579  0.00  0.00     0.108 C 
ATOM     31  C24 UNK A          64.528  19.644  48.445  0.00  0.00     0.093 C 
ATOM     32  C25 UNK A          64.711  20.748  47.634  0.00  0.00     0.006 A 
ATOM     33  C23 UNK A          64.715  19.635  49.824  0.00  0.00     0.087 C 
ATOM     34  C26 UNK A          65.121  21.965  48.118  0.00  0.00     0.015 A 
ATOM     35  C30 UNK A          64.563  20.572  46.276  0.00  0.00     0.015 A 
ATOM     36  C27 UNK A          65.415  22.985  47.227  0.00  0.00     0.053 A 
ATOM     37  C28 UNK A          65.296  22.797  45.876  0.00  0.00     0.178 A 
ATOM     38  C29 UNK A          64.860  21.596  45.401  0.00  0.00     0.053 A 
ATOM     39  O9  UNK A          65.584  23.696  45.092  0.00  0.00    -0.290 OA
ATOM     40  O8  UNK A          65.092  18.439  51.713  0.00  0.00    -0.289 OA
BRANCH  24  41
ATOM     41  O7  UNK A          66.667  16.107  51.272  0.00  0.00    -0.357 OA
ATOM     42  H7  UNK A          66.755  15.143  51.408  0.00  0.00     0.218 HD
ENDBRANCH  24  41
BRANCH  30  43
ATOM     43  O5  UNK A          67.526  15.306  46.566  0.00  0.00    -0.358 OA
ATOM     44  H5  UNK A          68.307  14.866  46.949  0.00  0.00     0.218 HD
ENDBRANCH  30  43
ENDBRANCH  22  23
ENDBRANCH  19  22
ENDBRANCH  11  16
TORSDOF 7
ENDMDL
MODEL 8
REMARK VINA RESULT:      -7.0     24.773     27.244
REMARK  7 active torsions:
REMARK  status: ('A' for Active; 'I' for Inactive)
REMARK    1  A    between atoms: C1_1  and  O1_7 
REMARK    2  A    between atoms: C3_3  and  O10_40 
REMARK    3  A    between atoms: C9_12  and  C10_13 
REMARK    4  A    between atoms: C13_16  and  O4_19 
REMARK    5  A    between atoms: O4_19  and  C16_20 
REMARK    6  A    between atoms: C17_21  and  O7_29 
REMARK    7  A    between atoms: C18_22  and  O5_24 
ROOT
ATOM      1  C1  UNK A          71.234  13.402  45.130  0.00  0.00     0.088 A 
ATOM      2  C2  UNK A          72.268  14.172  44.571  0.00  0.00     0.067 A 
ATOM      3  C3  UNK A          72.586  15.435  45.089  0.00  0.00     0.076 A 
ATOM      4  C4  UNK A          71.862  15.950  46.173  0.00  0.00     0.068 A 
ATOM      5  C5  UNK A          70.794  15.211  46.697  0.00  0.00     0.098 A 
ATOM      6  C6  UNK A          70.475  13.921  46.209  0.00  0.00     0.083 A 
ATOM      7  C7  UNK A          69.274  13.220  46.706  0.00  0.00     0.193 C 
ATOM      8  O2  UNK A          68.937  12.061  46.489  0.00  0.00    -0.289 OA
ATOM      9  C8  UNK A          68.350  14.094  47.249  0.00  0.00     0.087 C 
ATOM     10  O3  UNK A          69.971  15.852  47.581  0.00  0.00    -0.309 OA
ATOM     11  C9  UNK A          68.694  15.384  47.603  0.00  0.00     0.093 C 
ENDROOT
BRANCH   1  12
ATOM     12  O1  UNK A          70.944  12.201  44.541  0.00  0.00    -0.360 OA
ATOM     13  H1  UNK A          70.235  12.333  43.877  0.00  0.00     0.218 HD
ENDBRANCH   1  12
BRANCH   3  14
ATOM     14  O10 UNK A          73.557  16.190  44.499  0.00  0.00    -0.361 OA
ATOM     15  H10 UNK A          74.405  16.032  44.959  0.00  0.00     0.218 HD
ENDBRANCH   3  14
BRANCH  11  16
ATOM     16  C10 UNK A          67.639  16.391  47.570  0.00  0.00     0.006 A 
ATOM     17  C11 UNK A          67.917  17.768  47.570  0.00  0.00     0.013 A 
ATOM     18  C12 UNK A          66.852  18.694  47.589  0.00  0.00     0.035 A 
ATOM     19  C13 UNK A          65.515  18.249  47.569  0.00  0.00     0.082 A 
ATOM     20  C14 UNK A          65.244  16.876  47.444  0.00  0.00     0.035 A 
ATOM     21  C15 UNK A          66.302  15.952  47.465  0.00  0.00     0.013 A 
BRANCH  19  22
ATOM     22  O4  UNK A          64.500  19.146  47.882  0.00  0.00    -0.305 OA
BRANCH  22  23
ATOM     23  C16 UNK A          64.861  20.479  47.955  0.00  0.00     0.143 C 
ATOM     24  C17 UNK A          65.071  21.241  46.776  0.00  0.00     0.119 C 
ATOM     25  C21 UNK A          65.592  22.556  46.881  0.00  0.00     0.086 C 
ATOM     26  C20 UNK A          66.010  22.996  48.142  0.00  0.00     0.099 C 
ATOM     27  C22 UNK A          65.593  23.552  45.782  0.00  0.00     0.193 C 
ATOM     28  C19 UNK A          65.728  22.297  49.309  0.00  0.00     0.071 C 
ATOM     29  O6  UNK A          66.554  24.227  48.258  0.00  0.00    -0.309 OA
ATOM     30  C18 UNK A          65.100  21.057  49.225  0.00  0.00     0.108 C 
ATOM     31  C24 UNK A          65.846  25.162  47.569  0.00  0.00     0.093 C 
ATOM     32  C25 UNK A          65.387  26.267  48.262  0.00  0.00     0.006 A 
ATOM     33  C23 UNK A          65.525  24.866  46.248  0.00  0.00     0.087 C 
ATOM     34  C26 UNK A          64.538  27.191  47.706  0.00  0.00     0.015 A 
ATOM     35  C30 UNK A          65.732  26.374  49.591  0.00  0.00     0.015 A 
ATOM     36  C27 UNK A          64.013  28.195  48.504  0.00  0.00     0.053 A 
ATOM     37  C28 UNK A          64.334  28.280  49.832  0.00  0.00     0.178 A 
ATOM     38  C29 UNK A          65.201  27.378  50.372  0.00  0.00     0.053 A 
ATOM     39  O9  UNK A          63.844  29.156  50.538  0.00  0.00    -0.290 OA
ATOM     40  O8  UNK A          65.376  23.319  44.598  0.00  0.00    -0.289 OA
BRANCH  24  41
ATOM     41  O7  UNK A          64.745  20.712  45.555  0.00  0.00    -0.357 OA
ATOM     42  H7  UNK A          64.786  19.736  45.613  0.00  0.00     0.218 HD
ENDBRANCH  24  41
BRANCH  30  43
ATOM     43  O5  UNK A          64.724  20.464  50.399  0.00  0.00    -0.358 OA
ATOM     44  H5  UNK A          65.519  20.309  50.940  0.00  0.00     0.218 HD
ENDBRANCH  30  43
ENDBRANCH  22  23
ENDBRANCH  19  22
ENDBRANCH  11  16
TORSDOF 7
ENDMDL
MODEL 9
REMARK VINA RESULT:      -7.0     22.590     26.921
REMARK  7 active torsions:
REMARK  status: ('A' for Active; 'I' for Inactive)
REMARK    1  A    between atoms: C1_1  and  O1_7 
REMARK    2  A    between atoms: C3_3  and  O10_40 
REMARK    3  A    between atoms: C9_12  and  C10_13 
REMARK    4  A    between atoms: C13_16  and  O4_19 
REMARK    5  A    between atoms: O4_19  and  C16_20 
REMARK    6  A    between atoms: C17_21  and  O7_29 
REMARK    7  A    between atoms: C18_22  and  O5_24 
ROOT
ATOM      1  C1  UNK A          64.516  18.042  48.085  0.00  0.00     0.088 A 
ATOM      2  C2  UNK A          63.817  17.904  49.296  0.00  0.00     0.067 A 
ATOM      3  C3  UNK A          62.905  18.882  49.717  0.00  0.00     0.076 A 
ATOM      4  C4  UNK A          62.689  20.022  48.932  0.00  0.00     0.068 A 
ATOM      5  C5  UNK A          63.426  20.192  47.753  0.00  0.00     0.098 A 
ATOM      6  C6  UNK A          64.329  19.203  47.293  0.00  0.00     0.083 A 
ATOM      7  C7  UNK A          65.171  19.466  46.109  0.00  0.00     0.193 C 
ATOM      8  O2  UNK A          65.894  18.675  45.511  0.00  0.00    -0.289 OA
ATOM      9  C8  UNK A          65.311  20.819  45.861  0.00  0.00     0.087 C 
ATOM     10  O3  UNK A          63.362  21.420  47.153  0.00  0.00    -0.309 OA
ATOM     11  C9  UNK A          64.466  21.751  46.430  0.00  0.00     0.093 C 
ENDROOT
BRANCH   1  12
ATOM     12  O1  UNK A          65.428  17.074  47.761  0.00  0.00    -0.360 OA
ATOM     13  H1  UNK A          65.288  16.803  46.830  0.00  0.00     0.218 HD
ENDBRANCH   1  12
BRANCH   3  14
ATOM     14  O10 UNK A          62.277  18.755  50.921  0.00  0.00    -0.361 OA
ATOM     15  H10 UNK A          61.725  17.949  50.907  0.00  0.00     0.218 HD
ENDBRANCH   3  14
BRANCH  11  16
ATOM     16  C10 UNK A          64.996  23.093  46.646  0.00  0.00     0.006 A 
ATOM     17  C11 UNK A          64.777  24.141  45.737  0.00  0.00     0.013 A 
ATOM     18  C12 UNK A          65.359  25.405  45.975  0.00  0.00     0.035 A 
ATOM     19  C13 UNK A          66.125  25.633  47.136  0.00  0.00     0.082 A 
ATOM     20  C14 UNK A          66.238  24.618  48.101  0.00  0.00     0.035 A 
ATOM     21  C15 UNK A          65.693  23.349  47.847  0.00  0.00     0.013 A 
BRANCH  19  22
ATOM     22  O4  UNK A          66.921  26.770  47.207  0.00  0.00    -0.305 OA
BRANCH  22  23
ATOM     23  C16 UNK A          66.663  27.635  48.255  0.00  0.00     0.143 C 
ATOM     24  C17 UNK A          67.611  27.818  49.295  0.00  0.00     0.119 C 
ATOM     25  C21 UNK A          67.255  28.587  50.433  0.00  0.00     0.086 C 
ATOM     26  C20 UNK A          65.928  29.016  50.545  0.00  0.00     0.099 C 
ATOM     27  C22 UNK A          68.218  29.093  51.442  0.00  0.00     0.193 C 
ATOM     28  C19 UNK A          65.020  28.919  49.498  0.00  0.00     0.071 C 
ATOM     29  O6  UNK A          65.555  29.708  51.643  0.00  0.00    -0.309 OA
ATOM     30  C18 UNK A          65.402  28.275  48.323  0.00  0.00     0.108 C 
ATOM     31  C24 UNK A          66.460  30.668  51.970  0.00  0.00     0.093 C 
ATOM     32  C25 UNK A          66.011  31.971  52.081  0.00  0.00     0.006 A 
ATOM     33  C23 UNK A          67.795  30.283  52.037  0.00  0.00     0.087 C 
ATOM     34  C26 UNK A          66.859  33.036  52.255  0.00  0.00     0.015 A 
ATOM     35  C30 UNK A          64.663  32.196  51.912  0.00  0.00     0.015 A 
ATOM     36  C27 UNK A          66.346  34.323  52.220  0.00  0.00     0.053 A 
ATOM     37  C28 UNK A          65.010  34.544  52.021  0.00  0.00     0.178 A 
ATOM     38  C29 UNK A          64.167  33.482  51.879  0.00  0.00     0.053 A 
ATOM     39  O9  UNK A          64.567  35.687  51.963  0.00  0.00    -0.290 OA
ATOM     40  O8  UNK A          69.383  28.733  51.571  0.00  0.00    -0.289 OA
BRANCH  24  41
ATOM     41  O7  UNK A          68.864  27.278  49.178  0.00  0.00    -0.357 OA
ATOM     42  H7  UNK A          68.788  26.386  48.783  0.00  0.00     0.218 HD
ENDBRANCH  24  41
BRANCH  30  43
ATOM     43  O5  UNK A          64.527  28.316  47.273  0.00  0.00    -0.358 OA
ATOM     44  H5  UNK A          65.032  28.444  46.449  0.00  0.00     0.218 HD
ENDBRANCH  30  43
ENDBRANCH  22  23
ENDBRANCH  19  22
ENDBRANCH  11  16
TORSDOF 7
ENDMDL
