MODEL 1
REMARK VINA RESULT:      -6.5      0.000      0.000
REMARK  5 active torsions:
REMARK  status: ('A' for Active; 'I' for Inactive)
REMARK    1  A    between atoms: C5_6  and  N2_7 
REMARK    2  A    between atoms: N2_7  and  C6_8 
REMARK    3  A    between atoms: C6_8  and  C7_9 
REMARK    4  A    between atoms: C6_8  and  C8_10 
REMARK    5  A    between atoms: C14_17  and  O1_27 
ROOT
ATOM      1  N1  UNK A          69.332  26.168  46.544  0.00  0.00    -0.242 NA
ATOM      2  C1  UNK A          70.582  26.227  46.014  0.00  0.00     0.113 A 
ATOM      3  C2  UNK A          70.821  27.022  44.877  0.00  0.00     0.020 A 
ATOM      4  C3  UNK A          69.752  27.750  44.321  0.00  0.00     0.005 A 
ATOM      5  C4  UNK A          68.473  27.675  44.906  0.00  0.00     0.044 A 
ATOM      6  C5  UNK A          68.273  26.862  46.041  0.00  0.00     0.118 A 
ENDROOT
BRANCH   6   7
ATOM      7  N2  UNK A          67.028  26.765  46.594  0.00  0.00    -0.318 N 
ATOM      8  HN2 UNK A          66.269  27.243  46.130  0.00  0.00     0.149 HD
BRANCH   7   9
ATOM      9  C6  UNK A          66.728  26.028  47.791  0.00  0.00     0.135 C 
BRANCH   9  10
ATOM     10  C7  UNK A          66.203  24.658  47.452  0.00  0.00     0.011 A 
ATOM     11  C14 UNK A          65.086  24.469  46.598  0.00  0.00     0.103 A 
ATOM     12  C15 UNK A          64.523  23.181  46.437  0.00  0.00     0.102 A 
ATOM     13  C16 UNK A          65.117  22.041  47.052  0.00  0.00     0.021 A 
ATOM     14  N3  UNK A          63.387  23.028  45.702  0.00  0.00    -0.253 NA
ATOM     15  C17 UNK A          66.284  22.213  47.832  0.00  0.00     0.051 A 
ATOM     16  C21 UNK A          64.497  20.783  46.857  0.00  0.00     0.013 A 
ATOM     17  C18 UNK A          66.799  23.507  48.028  0.00  0.00     0.030 A 
ATOM     18 Cl2  UNK A          67.109  20.930  48.582  0.00  0.00    -0.084 Cl
ATOM     19  C20 UNK A          63.322  20.673  46.092  0.00  0.00     0.021 A 
ATOM     20  C19 UNK A          62.773  21.833  45.522  0.00  0.00     0.112 A 
BRANCH  11  21
ATOM     21  O1  UNK A          64.523  25.510  45.924  0.00  0.00    -0.358 OA
ATOM     22  HO1 UNK A          64.508  26.286  46.489  0.00  0.00     0.218 HD
ENDBRANCH  11  21
ENDBRANCH   9  10
BRANCH   9  23
ATOM     23  C8  UNK A          65.840  26.841  48.686  0.00  0.00    -0.022 A 
ATOM     24  C9  UNK A          65.685  26.476  50.049  0.00  0.00     0.026 A 
ATOM     25  C10 UNK A          64.856  27.213  50.918  0.00  0.00     0.041 A 
ATOM     26  C11 UNK A          64.162  28.336  50.431  0.00  0.00     0.020 A 
ATOM     27 Cl1  UNK A          64.691  26.763  52.543  0.00  0.00    -0.084 Cl
ATOM     28  C12 UNK A          64.306  28.722  49.088  0.00  0.00     0.002 A 
ATOM     29  C13 UNK A          65.144  27.988  48.229  0.00  0.00     0.006 A 
ENDBRANCH   9  23
ENDBRANCH   7   9
ENDBRANCH   6   7
TORSDOF 5
ENDMDL
MODEL 2
REMARK VINA RESULT:      -6.2     20.670     23.589
REMARK  5 active torsions:
REMARK  status: ('A' for Active; 'I' for Inactive)
REMARK    1  A    between atoms: C5_6  and  N2_7 
REMARK    2  A    between atoms: N2_7  and  C6_8 
REMARK    3  A    between atoms: C6_8  and  C7_9 
REMARK    4  A    between atoms: C6_8  and  C8_10 
REMARK    5  A    between atoms: C14_17  and  O1_27 
ROOT
ATOM      1  N1  UNK A          48.520  16.122  53.932  0.00  0.00    -0.242 NA
ATOM      2  C1  UNK A          49.440  15.204  53.536  0.00  0.00     0.113 A 
ATOM      3  C2  UNK A          49.524  14.843  52.177  0.00  0.00     0.020 A 
ATOM      4  C3  UNK A          48.653  15.456  51.257  0.00  0.00     0.005 A 
ATOM      5  C4  UNK A          47.722  16.414  51.703  0.00  0.00     0.044 A 
ATOM      6  C5  UNK A          47.665  16.743  53.074  0.00  0.00     0.118 A 
ENDROOT
BRANCH   6   7
ATOM      7  N2  UNK A          46.745  17.651  53.513  0.00  0.00    -0.318 N 
ATOM      8  HN2 UNK A          46.715  18.552  53.056  0.00  0.00     0.149 HD
BRANCH   7   9
ATOM      9  C6  UNK A          45.816  17.410  54.583  0.00  0.00     0.135 C 
BRANCH   9  10
ATOM     10  C7  UNK A          44.418  17.248  54.046  0.00  0.00     0.011 A 
ATOM     11  C14 UNK A          43.841  18.185  53.151  0.00  0.00     0.103 A 
ATOM     12  C15 UNK A          42.475  18.087  52.801  0.00  0.00     0.102 A 
ATOM     13  C16 UNK A          41.678  17.000  53.262  0.00  0.00     0.021 A 
ATOM     14  N3  UNK A          41.905  19.053  52.028  0.00  0.00    -0.253 NA
ATOM     15  C17 UNK A          42.273  16.013  54.082  0.00  0.00     0.051 A 
ATOM     16  C21 UNK A          40.314  16.967  52.881  0.00  0.00     0.013 A 
ATOM     17  C18 UNK A          43.618  16.155  54.468  0.00  0.00     0.030 A 
ATOM     18 Cl2  UNK A          41.441  14.649  54.663  0.00  0.00    -0.084 Cl
ATOM     19  C20 UNK A          39.768  17.989  52.084  0.00  0.00     0.021 A 
ATOM     20  C19 UNK A          40.597  19.044  51.670  0.00  0.00     0.112 A 
BRANCH  11  21
ATOM     21  O1  UNK A          44.575  19.202  52.618  0.00  0.00    -0.358 OA
ATOM     22  HO1 UNK A          44.892  18.946  51.748  0.00  0.00     0.218 HD
ENDBRANCH  11  21
ENDBRANCH   9  10
BRANCH   9  23
ATOM     23  C8  UNK A          45.966  18.461  55.642  0.00  0.00    -0.022 A 
ATOM     24  C9  UNK A          46.864  19.544  55.442  0.00  0.00     0.026 A 
ATOM     25  C10 UNK A          47.033  20.547  56.416  0.00  0.00     0.041 A 
ATOM     26  C11 UNK A          46.302  20.483  57.617  0.00  0.00     0.020 A 
ATOM     27 Cl1  UNK A          48.106  21.833  56.153  0.00  0.00    -0.084 Cl
ATOM     28  C12 UNK A          45.402  19.427  57.833  0.00  0.00     0.002 A 
ATOM     29  C13 UNK A          45.228  18.434  56.852  0.00  0.00     0.006 A 
ENDBRANCH   9  23
ENDBRANCH   7   9
ENDBRANCH   6   7
TORSDOF 5
ENDMDL
MODEL 3
REMARK VINA RESULT:      -6.2     16.513     18.496
REMARK  5 active torsions:
REMARK  status: ('A' for Active; 'I' for Inactive)
REMARK    1  A    between atoms: C5_6  and  N2_7 
REMARK    2  A    between atoms: N2_7  and  C6_8 
REMARK    3  A    between atoms: C6_8  and  C7_9 
REMARK    4  A    between atoms: C6_8  and  C8_10 
REMARK    5  A    between atoms: C14_17  and  O1_27 
ROOT
ATOM      1  N1  UNK A          59.466  24.689  32.269  0.00  0.00    -0.242 NA
ATOM      2  C1  UNK A          60.035  23.498  31.943  0.00  0.00     0.113 A 
ATOM      3  C2  UNK A          59.314  22.305  32.136  0.00  0.00     0.020 A 
ATOM      4  C3  UNK A          58.007  22.378  32.655  0.00  0.00     0.005 A 
ATOM      5  C4  UNK A          57.445  23.631  32.967  0.00  0.00     0.044 A 
ATOM      6  C5  UNK A          58.204  24.804  32.765  0.00  0.00     0.118 A 
ENDROOT
BRANCH   6   7
ATOM      7  N2  UNK A          57.672  26.018  33.093  0.00  0.00    -0.318 N 
ATOM      8  HN2 UNK A          57.569  26.238  34.074  0.00  0.00     0.149 HD
BRANCH   7   9
ATOM      9  C6  UNK A          57.250  27.003  32.135  0.00  0.00     0.135 C 
BRANCH   9  10
ATOM     10  C7  UNK A          57.980  28.302  32.353  0.00  0.00     0.011 A 
ATOM     11  C14 UNK A          59.338  28.475  31.982  0.00  0.00     0.103 A 
ATOM     12  C15 UNK A          60.033  29.650  32.352  0.00  0.00     0.102 A 
ATOM     13  C16 UNK A          59.363  30.717  33.018  0.00  0.00     0.021 A 
ATOM     14  N3  UNK A          61.364  29.759  32.087  0.00  0.00    -0.253 NA
ATOM     15  C17 UNK A          57.985  30.586  33.309  0.00  0.00     0.051 A 
ATOM     16  C21 UNK A          60.120  31.861  33.367  0.00  0.00     0.013 A 
ATOM     17  C18 UNK A          57.322  29.388  32.985  0.00  0.00     0.030 A 
ATOM     18 Cl2  UNK A          57.064  31.800  34.062  0.00  0.00    -0.084 Cl
ATOM     19  C20 UNK A          61.494  31.928  33.076  0.00  0.00     0.021 A 
ATOM     20  C19 UNK A          62.105  30.841  32.431  0.00  0.00     0.112 A 
BRANCH  11  21
ATOM     21  O1  UNK A          60.009  27.521  31.278  0.00  0.00    -0.358 OA
ATOM     22  HO1 UNK A          59.398  27.066  30.693  0.00  0.00     0.218 HD
ENDBRANCH  11  21
ENDBRANCH   9  10
BRANCH   9  23
ATOM     23  C8  UNK A          55.754  27.113  32.136  0.00  0.00    -0.022 A 
ATOM     24  C9  UNK A          55.079  27.606  30.988  0.00  0.00     0.026 A 
ATOM     25  C10 UNK A          53.676  27.726  30.955  0.00  0.00     0.041 A 
ATOM     26  C11 UNK A          52.918  27.353  32.081  0.00  0.00     0.020 A 
ATOM     27 Cl1  UNK A          52.892  28.312  29.571  0.00  0.00    -0.084 Cl
ATOM     28  C12 UNK A          53.562  26.854  33.224  0.00  0.00     0.002 A 
ATOM     29  C13 UNK A          54.963  26.725  33.247  0.00  0.00     0.006 A 
ENDBRANCH   9  23
ENDBRANCH   7   9
ENDBRANCH   6   7
TORSDOF 5
ENDMDL
MODEL 4
REMARK VINA RESULT:      -6.0     21.689     24.722
REMARK  5 active torsions:
REMARK  status: ('A' for Active; 'I' for Inactive)
REMARK    1  A    between atoms: C5_6  and  N2_7 
REMARK    2  A    between atoms: N2_7  and  C6_8 
REMARK    3  A    between atoms: C6_8  and  C7_9 
REMARK    4  A    between atoms: C6_8  and  C8_10 
REMARK    5  A    between atoms: C14_17  and  O1_27 
ROOT
ATOM      1  N1  UNK A          45.027  16.163  51.812  0.00  0.00    -0.242 NA
ATOM      2  C1  UNK A          45.673  15.265  51.022  0.00  0.00     0.113 A 
ATOM      3  C2  UNK A          46.964  15.560  50.543  0.00  0.00     0.020 A 
ATOM      4  C3  UNK A          47.561  16.781  50.908  0.00  0.00     0.005 A 
ATOM      5  C4  UNK A          46.867  17.681  51.741  0.00  0.00     0.044 A 
ATOM      6  C5  UNK A          45.572  17.351  52.194  0.00  0.00     0.118 A 
ENDROOT
BRANCH   6   7
ATOM      7  N2  UNK A          44.885  18.233  52.979  0.00  0.00    -0.318 N 
ATOM      8  HN2 UNK A          44.760  19.174  52.632  0.00  0.00     0.149 HD
BRANCH   7   9
ATOM      9  C6  UNK A          44.329  17.910  54.264  0.00  0.00     0.135 C 
BRANCH   9  10
ATOM     10  C7  UNK A          42.893  18.360  54.349  0.00  0.00     0.011 A 
ATOM     11  C14 UNK A          42.083  18.517  53.196  0.00  0.00     0.103 A 
ATOM     12  C15 UNK A          40.798  19.097  53.302  0.00  0.00     0.102 A 
ATOM     13  C16 UNK A          40.256  19.447  54.573  0.00  0.00     0.021 A 
ATOM     14  N3  UNK A          40.072  19.343  52.177  0.00  0.00    -0.253 NA
ATOM     15  C17 UNK A          41.026  19.207  55.736  0.00  0.00     0.051 A 
ATOM     16  C21 UNK A          38.967  20.031  54.608  0.00  0.00     0.013 A 
ATOM     17  C18 UNK A          42.325  18.683  55.608  0.00  0.00     0.030 A 
ATOM     18 Cl2  UNK A          40.478  19.542  57.310  0.00  0.00    -0.084 Cl
ATOM     19  C20 UNK A          38.256  20.270  53.418  0.00  0.00     0.021 A 
ATOM     20  C19 UNK A          38.845  19.918  52.194  0.00  0.00     0.112 A 
BRANCH  11  21
ATOM     21  O1  UNK A          42.518  18.130  51.964  0.00  0.00    -0.358 OA
ATOM     22  HO1 UNK A          42.461  17.174  51.890  0.00  0.00     0.218 HD
ENDBRANCH  11  21
ENDBRANCH   9  10
BRANCH   9  23
ATOM     23  C8  UNK A          45.217  18.431  55.354  0.00  0.00    -0.022 A 
ATOM     24  C9  UNK A          45.799  19.722  55.237  0.00  0.00     0.026 A 
ATOM     25  C10 UNK A          46.641  20.242  56.240  0.00  0.00     0.041 A 
ATOM     26  C11 UNK A          46.919  19.472  57.384  0.00  0.00     0.020 A 
ATOM     27 Cl1  UNK A          47.319  21.787  56.081  0.00  0.00    -0.084 Cl
ATOM     28  C12 UNK A          46.348  18.197  57.527  0.00  0.00     0.002 A 
ATOM     29  C13 UNK A          45.499  17.688  56.528  0.00  0.00     0.006 A 
ENDBRANCH   9  23
ENDBRANCH   7   9
ENDBRANCH   6   7
TORSDOF 5
ENDMDL
MODEL 5
REMARK VINA RESULT:      -5.9     20.972     23.321
REMARK  5 active torsions:
REMARK  status: ('A' for Active; 'I' for Inactive)
REMARK    1  A    between atoms: C5_6  and  N2_7 
REMARK    2  A    between atoms: N2_7  and  C6_8 
REMARK    3  A    between atoms: C6_8  and  C7_9 
REMARK    4  A    between atoms: C6_8  and  C8_10 
REMARK    5  A    between atoms: C14_17  and  O1_27 
ROOT
ATOM      1  N1  UNK A          43.033  16.523  56.469  0.00  0.00    -0.242 NA
ATOM      2  C1  UNK A          41.876  15.957  56.038  0.00  0.00     0.113 A 
ATOM      3  C2  UNK A          40.991  16.704  55.237  0.00  0.00     0.020 A 
ATOM      4  C3  UNK A          41.337  18.024  54.892  0.00  0.00     0.005 A 
ATOM      5  C4  UNK A          42.553  18.572  55.346  0.00  0.00     0.044 A 
ATOM      6  C5  UNK A          43.409  17.793  56.153  0.00  0.00     0.118 A 
ENDROOT
BRANCH   6   7
ATOM      7  N2  UNK A          44.575  18.331  56.618  0.00  0.00    -0.318 N 
ATOM      8  HN2 UNK A          44.801  18.194  57.593  0.00  0.00     0.149 HD
BRANCH   7   9
ATOM      9  C6  UNK A          45.500  19.079  55.811  0.00  0.00     0.135 C 
BRANCH   9  10
ATOM     10  C7  UNK A          46.297  18.157  54.925  0.00  0.00     0.011 A 
ATOM     11  C14 UNK A          46.237  18.233  53.510  0.00  0.00     0.103 A 
ATOM     12  C15 UNK A          46.869  17.247  52.717  0.00  0.00     0.102 A 
ATOM     13  C16 UNK A          47.651  16.218  53.315  0.00  0.00     0.021 A 
ATOM     14  N3  UNK A          46.715  17.269  51.364  0.00  0.00    -0.253 NA
ATOM     15  C17 UNK A          47.788  16.191  54.723  0.00  0.00     0.051 A 
ATOM     16  C21 UNK A          48.249  15.258  52.464  0.00  0.00     0.013 A 
ATOM     17  C18 UNK A          47.107  17.145  55.501  0.00  0.00     0.030 A 
ATOM     18 Cl2  UNK A          48.725  15.041  55.554  0.00  0.00    -0.084 Cl
ATOM     19  C20 UNK A          48.059  15.317  51.071  0.00  0.00     0.021 A 
ATOM     20  C19 UNK A          47.267  16.346  50.538  0.00  0.00     0.112 A 
BRANCH  11  21
ATOM     21  O1  UNK A          45.568  19.239  52.881  0.00  0.00    -0.358 OA
ATOM     22  HO1 UNK A          44.775  18.887  52.469  0.00  0.00     0.218 HD
ENDBRANCH  11  21
ENDBRANCH   9  10
BRANCH   9  23
ATOM     23  C8  UNK A          46.322  19.985  56.679  0.00  0.00    -0.022 A 
ATOM     24  C9  UNK A          46.108  20.007  58.082  0.00  0.00     0.026 A 
ATOM     25  C10 UNK A          46.859  20.848  58.927  0.00  0.00     0.041 A 
ATOM     26  C11 UNK A          47.843  21.690  58.376  0.00  0.00     0.020 A 
ATOM     27 Cl1  UNK A          46.591  20.853  60.600  0.00  0.00    -0.084 Cl
ATOM     28  C12 UNK A          48.079  21.679  56.991  0.00  0.00     0.002 A 
ATOM     29  C13 UNK A          47.333  20.829  56.155  0.00  0.00     0.006 A 
ENDBRANCH   9  23
ENDBRANCH   7   9
ENDBRANCH   6   7
TORSDOF 5
ENDMDL
MODEL 6
REMARK VINA RESULT:      -5.8      4.548      7.608
REMARK  5 active torsions:
REMARK  status: ('A' for Active; 'I' for Inactive)
REMARK    1  A    between atoms: C5_6  and  N2_7 
REMARK    2  A    between atoms: N2_7  and  C6_8 
REMARK    3  A    between atoms: C6_8  and  C7_9 
REMARK    4  A    between atoms: C6_8  and  C8_10 
REMARK    5  A    between atoms: C14_17  and  O1_27 
ROOT
ATOM      1  N1  UNK A          65.363  19.842  51.280  0.00  0.00    -0.242 NA
ATOM      2  C1  UNK A          65.125  19.027  52.341  0.00  0.00     0.113 A 
ATOM      3  C2  UNK A          63.851  18.450  52.504  0.00  0.00     0.020 A 
ATOM      4  C3  UNK A          62.853  18.726  51.551  0.00  0.00     0.005 A 
ATOM      5  C4  UNK A          63.142  19.564  50.456  0.00  0.00     0.044 A 
ATOM      6  C5  UNK A          64.429  20.128  50.331  0.00  0.00     0.118 A 
ENDROOT
BRANCH   6   7
ATOM      7  N2  UNK A          64.704  20.964  49.286  0.00  0.00    -0.318 N 
ATOM      8  HN2 UNK A          64.902  21.932  49.496  0.00  0.00     0.149 HD
BRANCH   7   9
ATOM      9  C6  UNK A          64.729  20.555  47.908  0.00  0.00     0.135 C 
BRANCH   9  10
ATOM     10  C7  UNK A          65.657  19.384  47.719  0.00  0.00     0.011 A 
ATOM     11  C14 UNK A          65.179  18.088  47.395  0.00  0.00     0.103 A 
ATOM     12  C15 UNK A          66.063  16.985  47.389  0.00  0.00     0.102 A 
ATOM     13  C16 UNK A          67.459  17.164  47.615  0.00  0.00     0.021 A 
ATOM     14  N3  UNK A          65.576  15.730  47.183  0.00  0.00    -0.253 NA
ATOM     15  C17 UNK A          67.953  18.468  47.848  0.00  0.00     0.051 A 
ATOM     16  C21 UNK A          68.287  16.015  47.603  0.00  0.00     0.013 A 
ATOM     17  C18 UNK A          67.053  19.548  47.908  0.00  0.00     0.030 A 
ATOM     18 Cl2  UNK A          69.599  18.819  48.091  0.00  0.00    -0.084 Cl
ATOM     19  C20 UNK A          67.738  14.738  47.390  0.00  0.00     0.021 A 
ATOM     20  C19 UNK A          66.354  14.620  47.187  0.00  0.00     0.112 A 
BRANCH  11  21
ATOM     21  O1  UNK A          63.869  17.869  47.095  0.00  0.00    -0.358 OA
ATOM     22  HO1 UNK A          63.342  18.612  47.400  0.00  0.00     0.218 HD
ENDBRANCH  11  21
ENDBRANCH   9  10
BRANCH   9  23
ATOM     23  C8  UNK A          65.016  21.735  47.028  0.00  0.00    -0.022 A 
ATOM     24  C9  UNK A          65.480  22.949  47.600  0.00  0.00     0.026 A 
ATOM     25  C10 UNK A          65.756  24.079  46.804  0.00  0.00     0.041 A 
ATOM     26  C11 UNK A          65.570  24.011  45.411  0.00  0.00     0.020 A 
ATOM     27 Cl1  UNK A          66.314  25.515  47.509  0.00  0.00    -0.084 Cl
ATOM     28  C12 UNK A          65.121  22.818  44.821  0.00  0.00     0.002 A 
ATOM     29  C13 UNK A          64.858  21.690  45.620  0.00  0.00     0.006 A 
ENDBRANCH   9  23
ENDBRANCH   7   9
ENDBRANCH   6   7
TORSDOF 5
ENDMDL
MODEL 7
REMARK VINA RESULT:      -5.7      5.280      7.827
REMARK  5 active torsions:
REMARK  status: ('A' for Active; 'I' for Inactive)
REMARK    1  A    between atoms: C5_6  and  N2_7 
REMARK    2  A    between atoms: N2_7  and  C6_8 
REMARK    3  A    between atoms: C6_8  and  C7_9 
REMARK    4  A    between atoms: C6_8  and  C8_10 
REMARK    5  A    between atoms: C14_17  and  O1_27 
ROOT
ATOM      1  N1  UNK A          65.249  20.931  46.262  0.00  0.00    -0.242 NA
ATOM      2  C1  UNK A          65.107  22.085  45.559  0.00  0.00     0.113 A 
ATOM      3  C2  UNK A          63.831  22.666  45.424  0.00  0.00     0.020 A 
ATOM      4  C3  UNK A          62.730  22.038  46.036  0.00  0.00     0.005 A 
ATOM      5  C4  UNK A          62.919  20.851  46.770  0.00  0.00     0.044 A 
ATOM      6  C5  UNK A          64.212  20.296  46.876  0.00  0.00     0.118 A 
ENDROOT
BRANCH   6   7
ATOM      7  N2  UNK A          64.394  19.130  47.563  0.00  0.00    -0.318 N 
ATOM      8  HN2 UNK A          63.847  18.328  47.285  0.00  0.00     0.149 HD
BRANCH   7   9
ATOM      9  C6  UNK A          65.313  18.970  48.657  0.00  0.00     0.135 C 
BRANCH   9  10
ATOM     10  C7  UNK A          65.676  17.519  48.836  0.00  0.00     0.011 A 
ATOM     11  C14 UNK A          65.830  16.639  47.734  0.00  0.00     0.103 A 
ATOM     12  C15 UNK A          66.007  15.252  47.950  0.00  0.00     0.102 A 
ATOM     13  C16 UNK A          66.128  14.727  49.269  0.00  0.00     0.021 A 
ATOM     14  N3  UNK A          66.045  14.403  46.887  0.00  0.00    -0.253 NA
ATOM     15  C17 UNK A          66.067  15.614  50.369  0.00  0.00     0.051 A 
ATOM     16  C21 UNK A          66.296  13.328  49.414  0.00  0.00     0.013 A 
ATOM     17  C18 UNK A          65.832  16.983  50.140  0.00  0.00     0.030 A 
ATOM     18 Cl2  UNK A          66.237  15.119  51.986  0.00  0.00    -0.084 Cl
ATOM     19  C20 UNK A          66.326  12.489  48.286  0.00  0.00     0.021 A 
ATOM     20  C19 UNK A          66.187  13.060  47.011  0.00  0.00     0.112 A 
BRANCH  11  21
ATOM     21  O1  UNK A          65.800  17.095  46.451  0.00  0.00    -0.358 OA
ATOM     22  HO1 UNK A          66.603  16.829  45.998  0.00  0.00     0.218 HD
ENDBRANCH  11  21
ENDBRANCH   9  10
BRANCH   9  23
ATOM     23  C8  UNK A          64.773  19.640  49.885  0.00  0.00    -0.022 A 
ATOM     24  C9  UNK A          65.550  20.621  50.556  0.00  0.00     0.026 A 
ATOM     25  C10 UNK A          65.076  21.268  51.714  0.00  0.00     0.041 A 
ATOM     26  C11 UNK A          63.807  20.940  52.225  0.00  0.00     0.020 A 
ATOM     27 Cl1  UNK A          66.019  22.440  52.495  0.00  0.00    -0.084 Cl
ATOM     28  C12 UNK A          63.016  19.980  51.573  0.00  0.00     0.002 A 
ATOM     29  C13 UNK A          63.490  19.346  50.411  0.00  0.00     0.006 A 
ENDBRANCH   9  23
ENDBRANCH   7   9
ENDBRANCH   6   7
TORSDOF 5
ENDMDL
MODEL 8
REMARK VINA RESULT:      -5.7     20.489     23.257
REMARK  5 active torsions:
REMARK  status: ('A' for Active; 'I' for Inactive)
REMARK    1  A    between atoms: C5_6  and  N2_7 
REMARK    2  A    between atoms: N2_7  and  C6_8 
REMARK    3  A    between atoms: C6_8  and  C7_9 
REMARK    4  A    between atoms: C6_8  and  C8_10 
REMARK    5  A    between atoms: C14_17  and  O1_27 
ROOT
ATOM      1  N1  UNK A          42.632  17.059  54.112  0.00  0.00    -0.242 NA
ATOM      2  C1  UNK A          41.817  16.213  53.429  0.00  0.00     0.113 A 
ATOM      3  C2  UNK A          41.809  14.842  53.750  0.00  0.00     0.020 A 
ATOM      4  C3  UNK A          42.643  14.382  54.786  0.00  0.00     0.005 A 
ATOM      5  C4  UNK A          43.464  15.291  55.482  0.00  0.00     0.044 A 
ATOM      6  C5  UNK A          43.448  16.657  55.126  0.00  0.00     0.118 A 
ENDROOT
BRANCH   6   7
ATOM      7  N2  UNK A          44.262  17.536  55.780  0.00  0.00    -0.318 N 
ATOM      8  HN2 UNK A          44.140  17.640  56.777  0.00  0.00     0.149 HD
BRANCH   7   9
ATOM      9  C6  UNK A          45.282  18.323  55.142  0.00  0.00     0.135 C 
BRANCH   9  10
ATOM     10  C7  UNK A          46.263  17.436  54.421  0.00  0.00     0.011 A 
ATOM     11  C14 UNK A          47.187  16.612  55.115  0.00  0.00     0.103 A 
ATOM     12  C15 UNK A          48.198  15.922  54.406  0.00  0.00     0.102 A 
ATOM     13  C16 UNK A          48.252  15.965  52.983  0.00  0.00     0.021 A 
ATOM     14  N3  UNK A          49.144  15.222  55.090  0.00  0.00    -0.253 NA
ATOM     15  C17 UNK A          47.278  16.712  52.281  0.00  0.00     0.051 A 
ATOM     16  C21 UNK A          49.296  15.259  52.337  0.00  0.00     0.013 A 
ATOM     17  C18 UNK A          46.313  17.439  53.003  0.00  0.00     0.030 A 
ATOM     18 Cl2  UNK A          47.210  16.810  50.586  0.00  0.00    -0.084 Cl
ATOM     19  C20 UNK A          50.254  14.551  53.085  0.00  0.00     0.021 A 
ATOM     20  C19 UNK A          50.158  14.556  54.486  0.00  0.00     0.112 A 
BRANCH  11  21
ATOM     21  O1  UNK A          47.135  16.472  56.469  0.00  0.00    -0.358 OA
ATOM     22  HO1 UNK A          47.953  16.077  56.781  0.00  0.00     0.218 HD
ENDBRANCH  11  21
ENDBRANCH   9  10
BRANCH   9  23
ATOM     23  C8  UNK A          45.897  19.267  56.132  0.00  0.00    -0.022 A 
ATOM     24  C9  UNK A          46.942  20.139  55.724  0.00  0.00     0.026 A 
ATOM     25  C10 UNK A          47.545  21.036  56.627  0.00  0.00     0.041 A 
ATOM     26  C11 UNK A          47.109  21.076  57.965  0.00  0.00     0.020 A 
ATOM     27 Cl1  UNK A          48.786  22.071  56.117  0.00  0.00    -0.084 Cl
ATOM     28  C12 UNK A          46.071  20.230  58.389  0.00  0.00     0.002 A 
ATOM     29  C13 UNK A          45.466  19.344  57.480  0.00  0.00     0.006 A 
ENDBRANCH   9  23
ENDBRANCH   7   9
ENDBRANCH   6   7
TORSDOF 5
ENDMDL
MODEL 9
REMARK VINA RESULT:      -5.6     17.674     21.244
REMARK  5 active torsions:
REMARK  status: ('A' for Active; 'I' for Inactive)
REMARK    1  A    between atoms: C5_6  and  N2_7 
REMARK    2  A    between atoms: N2_7  and  C6_8 
REMARK    3  A    between atoms: C6_8  and  C7_9 
REMARK    4  A    between atoms: C6_8  and  C8_10 
REMARK    5  A    between atoms: C14_17  and  O1_27 
ROOT
ATOM      1  N1  UNK A          54.187  14.232  55.024  0.00  0.00    -0.242 NA
ATOM      2  C1  UNK A          55.476  14.288  54.599  0.00  0.00     0.113 A 
ATOM      3  C2  UNK A          55.798  13.877  53.291  0.00  0.00     0.020 A 
ATOM      4  C3  UNK A          54.765  13.427  52.447  0.00  0.00     0.005 A 
ATOM      5  C4  UNK A          53.437  13.397  52.918  0.00  0.00     0.044 A 
ATOM      6  C5  UNK A          53.157  13.810  54.238  0.00  0.00     0.118 A 
ENDROOT
BRANCH   6   7
ATOM      7  N2  UNK A          51.876  13.756  54.706  0.00  0.00    -0.318 N 
ATOM      8  HN2 UNK A          51.710  14.046  55.659  0.00  0.00     0.149 HD
BRANCH   7   9
ATOM      9  C6  UNK A          50.749  13.313  53.932  0.00  0.00     0.135 C 
BRANCH   9  10
ATOM     10  C7  UNK A          49.787  14.448  53.697  0.00  0.00     0.011 A 
ATOM     11  C14 UNK A          49.333  15.282  54.751  0.00  0.00     0.103 A 
ATOM     12  C15 UNK A          48.308  16.228  54.519  0.00  0.00     0.102 A 
ATOM     13  C16 UNK A          47.779  16.427  53.212  0.00  0.00     0.021 A 
ATOM     14  N3  UNK A          47.804  16.947  55.560  0.00  0.00    -0.253 NA
ATOM     15  C17 UNK A          48.293  15.661  52.140  0.00  0.00     0.051 A 
ATOM     16  C21 UNK A          46.748  17.384  53.051  0.00  0.00     0.013 A 
ATOM     17  C18 UNK A          49.272  14.684  52.397  0.00  0.00     0.030 A 
ATOM     18 Cl2  UNK A          47.775  15.832  50.529  0.00  0.00    -0.084 Cl
ATOM     19  C20 UNK A          46.256  18.101  54.156  0.00  0.00     0.021 A 
ATOM     20  C19 UNK A          46.806  17.853  55.424  0.00  0.00     0.112 A 
BRANCH  11  21
ATOM     21  O1  UNK A          49.857  15.189  56.005  0.00  0.00    -0.358 OA
ATOM     22  HO1 UNK A          50.069  16.068  56.329  0.00  0.00     0.218 HD
ENDBRANCH  11  21
ENDBRANCH   9  10
BRANCH   9  23
ATOM     23  C8  UNK A          50.142  12.093  54.559  0.00  0.00    -0.022 A 
ATOM     24  C9  UNK A          50.897  11.322  55.483  0.00  0.00     0.026 A 
ATOM     25  C10 UNK A          50.360  10.169  56.088  0.00  0.00     0.041 A 
ATOM     26  C11 UNK A          49.049   9.763  55.775  0.00  0.00     0.020 A 
ATOM     27 Cl1  UNK A          51.277   9.268  57.192  0.00  0.00    -0.084 Cl
ATOM     28  C12 UNK A          48.280  10.515  54.872  0.00  0.00     0.002 A 
ATOM     29  C13 UNK A          48.818  11.672  54.279  0.00  0.00     0.006 A 
ENDBRANCH   9  23
ENDBRANCH   7   9
ENDBRANCH   6   7
TORSDOF 5
ENDMDL
