MODEL 1
REMARK VINA RESULT:      -6.5      0.000      0.000
REMARK  5 active torsions:
REMARK  status: ('A' for Active; 'I' for Inactive)
REMARK    1  A    between atoms: C5_5  and  C7_9 
REMARK    2  A    between atoms: C7_9  and  C8_10 
REMARK    3  A    between atoms: C7_9  and  N1_16 
REMARK    4  A    between atoms: C9_11  and  O1_17 
REMARK    5  A    between atoms: N1_16  and  C17_22 
ROOT
ATOM      1  C1  UNK A          64.961  27.161  50.756  0.00  0.00     0.059 A 
ATOM      2  C2  UNK A          64.139  28.163  50.215  0.00  0.00     0.022 A 
ATOM      3  C3  UNK A          64.104  28.366  48.830  0.00  0.00     0.002 A 
ATOM      4  C4  UNK A          64.896  27.573  47.984  0.00  0.00     0.008 A 
ATOM      5  C5  UNK A          65.740  26.568  48.509  0.00  0.00    -0.003 A 
ATOM      6  C6  UNK A          65.758  26.361  49.910  0.00  0.00     0.065 A 
ATOM      7 Cl1  UNK A          64.965  26.934  52.495  0.00  0.00    -0.083 Cl
ATOM      8 Cl2  UNK A          66.758  25.105  50.625  0.00  0.00    -0.082 Cl
ENDROOT
BRANCH   5   9
ATOM      9  C7  UNK A          66.600  25.709  47.570  0.00  0.00     0.137 C 
BRANCH   9  10
ATOM     10  C8  UNK A          65.983  24.314  47.373  0.00  0.00     0.009 A 
ATOM     11  C9  UNK A          64.825  24.116  46.579  0.00  0.00     0.103 A 
ATOM     12  C10 UNK A          64.250  22.830  46.439  0.00  0.00     0.101 A 
ATOM     13  C11 UNK A          64.867  21.738  47.093  0.00  0.00     0.003 A 
ATOM     14  N2  UNK A          63.130  22.648  45.699  0.00  0.00    -0.254 NA
ATOM     15  C12 UNK A          66.018  21.928  47.872  0.00  0.00     0.011 A 
ATOM     16  C16 UNK A          64.317  20.451  46.959  0.00  0.00     0.012 A 
ATOM     17  C13 UNK A          66.567  23.207  48.018  0.00  0.00     0.009 A 
ATOM     18  C15 UNK A          63.160  20.290  46.186  0.00  0.00     0.021 A 
ATOM     19  C14 UNK A          62.598  21.419  45.577  0.00  0.00     0.112 A 
BRANCH  11  20
ATOM     20  O1  UNK A          64.235  25.177  45.943  0.00  0.00    -0.358 OA
ATOM     21  H1  UNK A          63.298  24.972  45.798  0.00  0.00     0.218 HD
ENDBRANCH  11  20
ENDBRANCH   9  10
BRANCH   9  22
ATOM     22  N1  UNK A          66.850  26.410  46.288  0.00  0.00    -0.318 N 
ATOM     23  HN1 UNK A          66.042  26.577  45.703  0.00  0.00     0.149 HD
BRANCH  22  24
ATOM     24  C17 UNK A          68.009  27.107  45.941  0.00  0.00     0.118 A 
ATOM     25  C18 UNK A          68.923  26.533  45.038  0.00  0.00     0.044 A 
ATOM     26  C19 UNK A          70.110  27.221  44.732  0.00  0.00     0.008 A 
ATOM     27  C20 UNK A          70.348  28.465  45.346  0.00  0.00    -0.033 A 
ATOM     28  C21 UNK A          69.372  28.968  46.225  0.00  0.00     0.116 A 
ATOM     29  C22 UNK A          71.627  29.243  45.084  0.00  0.00     0.046 C 
ATOM     30  N3  UNK A          68.234  28.309  46.511  0.00  0.00    -0.241 NA
ENDBRANCH  22  24
ENDBRANCH   9  22
ENDBRANCH   5   9
TORSDOF 5
ENDMDL
MODEL 2
REMARK VINA RESULT:      -6.4     20.397     23.163
REMARK  5 active torsions:
REMARK  status: ('A' for Active; 'I' for Inactive)
REMARK    1  A    between atoms: C5_5  and  C7_9 
REMARK    2  A    between atoms: C7_9  and  C8_10 
REMARK    3  A    between atoms: C7_9  and  N1_16 
REMARK    4  A    between atoms: C9_11  and  O1_17 
REMARK    5  A    between atoms: N1_16  and  C17_22 
ROOT
ATOM      1  C1  UNK A          42.442  16.385  57.290  0.00  0.00     0.059 A 
ATOM      2  C2  UNK A          41.406  17.301  57.044  0.00  0.00     0.022 A 
ATOM      3  C3  UNK A          41.704  18.574  56.543  0.00  0.00     0.002 A 
ATOM      4  C4  UNK A          43.037  18.937  56.295  0.00  0.00     0.008 A 
ATOM      5  C5  UNK A          44.096  18.035  56.550  0.00  0.00    -0.003 A 
ATOM      6  C6  UNK A          43.784  16.745  57.042  0.00  0.00     0.065 A 
ATOM      7 Cl1  UNK A          42.023  14.797  57.907  0.00  0.00    -0.083 Cl
ATOM      8 Cl2  UNK A          45.049  15.564  57.346  0.00  0.00    -0.082 Cl
ENDROOT
BRANCH   5   9
ATOM      9  C7  UNK A          45.549  18.448  56.273  0.00  0.00     0.137 C 
BRANCH   9  10
ATOM     10  C8  UNK A          46.004  17.979  54.881  0.00  0.00     0.009 A 
ATOM     11  C9  UNK A          47.163  17.183  54.703  0.00  0.00     0.103 A 
ATOM     12  C10 UNK A          47.586  16.791  53.411  0.00  0.00     0.101 A 
ATOM     13  C11 UNK A          46.814  17.192  52.295  0.00  0.00     0.003 A 
ATOM     14  N2  UNK A          48.708  16.051  53.243  0.00  0.00    -0.254 NA
ATOM     15  C12 UNK A          45.661  17.972  52.467  0.00  0.00     0.011 A 
ATOM     16  C16 UNK A          47.212  16.805  51.003  0.00  0.00     0.012 A 
ATOM     17  C13 UNK A          45.263  18.370  53.748  0.00  0.00     0.009 A 
ATOM     18  C15 UNK A          48.375  16.038  50.858  0.00  0.00     0.021 A 
ATOM     19  C14 UNK A          49.095  15.686  52.007  0.00  0.00     0.112 A 
BRANCH  11  20
ATOM     20  O1  UNK A          47.904  16.792  55.789  0.00  0.00    -0.358 OA
ATOM     21  H1  UNK A          48.025  17.555  56.375  0.00  0.00     0.218 HD
ENDBRANCH  11  20
ENDBRANCH   9  10
BRANCH   9  22
ATOM     22  N1  UNK A          45.737  19.905  56.476  0.00  0.00    -0.318 N 
ATOM     23  HN1 UNK A          44.902  20.474  56.428  0.00  0.00     0.149 HD
BRANCH  22  24
ATOM     24  C17 UNK A          46.870  20.525  57.003  0.00  0.00     0.118 A 
ATOM     25  C18 UNK A          47.610  21.419  56.207  0.00  0.00     0.044 A 
ATOM     26  C19 UNK A          48.777  22.001  56.730  0.00  0.00     0.008 A 
ATOM     27  C20 UNK A          49.171  21.666  58.039  0.00  0.00    -0.033 A 
ATOM     28  C21 UNK A          48.363  20.775  58.767  0.00  0.00     0.116 A 
ATOM     29  C22 UNK A          50.441  22.235  58.651  0.00  0.00     0.046 C 
ATOM     30  N3  UNK A          47.243  20.223  58.265  0.00  0.00    -0.241 NA
ENDBRANCH  22  24
ENDBRANCH   9  22
ENDBRANCH   5   9
TORSDOF 5
ENDMDL
MODEL 3
REMARK VINA RESULT:      -6.3     17.458     19.470
REMARK  5 active torsions:
REMARK  status: ('A' for Active; 'I' for Inactive)
REMARK    1  A    between atoms: C5_5  and  C7_9 
REMARK    2  A    between atoms: C7_9  and  C8_10 
REMARK    3  A    between atoms: C7_9  and  N1_16 
REMARK    4  A    between atoms: C9_11  and  O1_17 
REMARK    5  A    between atoms: N1_16  and  C17_22 
ROOT
ATOM      1  C1  UNK A          59.308  30.573  31.402  0.00  0.00     0.059 A 
ATOM      2  C2  UNK A          59.066  31.364  32.536  0.00  0.00     0.022 A 
ATOM      3  C3  UNK A          57.877  31.203  33.260  0.00  0.00     0.002 A 
ATOM      4  C4  UNK A          56.926  30.256  32.845  0.00  0.00     0.008 A 
ATOM      5  C5  UNK A          57.146  29.459  31.698  0.00  0.00    -0.003 A 
ATOM      6  C6  UNK A          58.356  29.620  30.983  0.00  0.00     0.065 A 
ATOM      7 Cl1  UNK A          60.815  30.801  30.533  0.00  0.00    -0.083 Cl
ATOM      8 Cl2  UNK A          58.707  28.637  29.569  0.00  0.00    -0.082 Cl
ENDROOT
BRANCH   5   9
ATOM      9  C7  UNK A          56.095  28.428  31.259  0.00  0.00     0.137 C 
BRANCH   9  10
ATOM     10  C8  UNK A          56.503  27.007  31.682  0.00  0.00     0.009 A 
ATOM     11  C9  UNK A          56.339  25.895  30.816  0.00  0.00     0.103 A 
ATOM     12  C10 UNK A          56.686  24.590  31.236  0.00  0.00     0.101 A 
ATOM     13  C11 UNK A          57.224  24.415  32.533  0.00  0.00     0.003 A 
ATOM     14  N2  UNK A          56.505  23.526  30.416  0.00  0.00    -0.254 NA
ATOM     15  C12 UNK A          57.397  25.513  33.389  0.00  0.00     0.011 A 
ATOM     16  C16 UNK A          57.584  23.126  32.966  0.00  0.00     0.012 A 
ATOM     17  C13 UNK A          57.032  26.798  32.970  0.00  0.00     0.009 A 
ATOM     18  C15 UNK A          57.389  22.045  32.097  0.00  0.00     0.021 A 
ATOM     19  C14 UNK A          56.842  22.292  30.831  0.00  0.00     0.112 A 
BRANCH  11  20
ATOM     20  O1  UNK A          55.822  26.071  29.559  0.00  0.00    -0.358 OA
ATOM     21  H1  UNK A          55.357  25.261  29.297  0.00  0.00     0.218 HD
ENDBRANCH  11  20
ENDBRANCH   9  10
BRANCH   9  22
ATOM     22  N1  UNK A          54.745  28.804  31.743  0.00  0.00    -0.318 N 
ATOM     23  HN1 UNK A          54.559  29.795  31.826  0.00  0.00     0.149 HD
BRANCH  22  24
ATOM     24  C17 UNK A          53.633  27.965  31.818  0.00  0.00     0.118 A 
ATOM     25  C18 UNK A          53.118  27.600  33.076  0.00  0.00     0.044 A 
ATOM     26  C19 UNK A          52.027  26.716  33.142  0.00  0.00     0.008 A 
ATOM     27  C20 UNK A          51.486  26.220  31.941  0.00  0.00    -0.033 A 
ATOM     28  C21 UNK A          52.055  26.650  30.729  0.00  0.00     0.116 A 
ATOM     29  C22 UNK A          50.328  25.235  31.945  0.00  0.00     0.046 C 
ATOM     30  N3  UNK A          53.097  27.501  30.670  0.00  0.00    -0.241 NA
ENDBRANCH  22  24
ENDBRANCH   9  22
ENDBRANCH   5   9
TORSDOF 5
ENDMDL
MODEL 4
REMARK VINA RESULT:      -6.3      2.296      6.985
REMARK  5 active torsions:
REMARK  status: ('A' for Active; 'I' for Inactive)
REMARK    1  A    between atoms: C5_5  and  C7_9 
REMARK    2  A    between atoms: C7_9  and  C8_10 
REMARK    3  A    between atoms: C7_9  and  N1_16 
REMARK    4  A    between atoms: C9_11  and  O1_17 
REMARK    5  A    between atoms: N1_16  and  C17_22 
ROOT
ATOM      1  C1  UNK A          70.340  25.948  46.780  0.00  0.00     0.059 A 
ATOM      2  C2  UNK A          70.265  26.919  45.769  0.00  0.00     0.022 A 
ATOM      3  C3  UNK A          69.016  27.360  45.316  0.00  0.00     0.002 A 
ATOM      4  C4  UNK A          67.840  26.826  45.866  0.00  0.00     0.008 A 
ATOM      5  C5  UNK A          67.894  25.837  46.876  0.00  0.00    -0.003 A 
ATOM      6  C6  UNK A          69.161  25.408  47.337  0.00  0.00     0.065 A 
ATOM      7 Cl1  UNK A          71.926  25.432  47.326  0.00  0.00    -0.083 Cl
ATOM      8 Cl2  UNK A          69.298  24.208  48.614  0.00  0.00    -0.082 Cl
ENDROOT
BRANCH   5   9
ATOM      9  C7  UNK A          66.597  25.263  47.467  0.00  0.00     0.137 C 
BRANCH   9  10
ATOM     10  C8  UNK A          65.877  26.305  48.339  0.00  0.00     0.009 A 
ATOM     11  C9  UNK A          66.176  26.461  49.716  0.00  0.00     0.103 A 
ATOM     12  C10 UNK A          65.477  27.400  50.510  0.00  0.00     0.101 A 
ATOM     13  C11 UNK A          64.485  28.201  49.897  0.00  0.00     0.003 A 
ATOM     14  N2  UNK A          65.748  27.529  51.831  0.00  0.00    -0.254 NA
ATOM     15  C12 UNK A          64.193  28.058  48.533  0.00  0.00     0.011 A 
ATOM     16  C16 UNK A          63.786  29.147  50.668  0.00  0.00     0.012 A 
ATOM     17  C13 UNK A          64.877  27.112  47.761  0.00  0.00     0.009 A 
ATOM     18  C15 UNK A          64.087  29.262  52.031  0.00  0.00     0.021 A 
ATOM     19  C14 UNK A          65.075  28.428  52.572  0.00  0.00     0.112 A 
BRANCH  11  20
ATOM     20  O1  UNK A          67.142  25.686  50.303  0.00  0.00    -0.358 OA
ATOM     21  H1  UNK A          66.868  25.481  51.211  0.00  0.00     0.218 HD
ENDBRANCH  11  20
ENDBRANCH   9  10
BRANCH   9  22
ATOM     22  N1  UNK A          65.728  24.707  46.403  0.00  0.00    -0.318 N 
ATOM     23  HN1 UNK A          65.774  25.164  45.502  0.00  0.00     0.149 HD
BRANCH  22  24
ATOM     24  C17 UNK A          65.085  23.469  46.428  0.00  0.00     0.118 A 
ATOM     25  C18 UNK A          65.730  22.358  47.003  0.00  0.00     0.044 A 
ATOM     26  C19 UNK A          65.095  21.105  46.980  0.00  0.00     0.008 A 
ATOM     27  C20 UNK A          63.828  21.001  46.375  0.00  0.00    -0.033 A 
ATOM     28  C21 UNK A          63.252  22.166  45.837  0.00  0.00     0.116 A 
ATOM     29  C22 UNK A          63.102  19.668  46.286  0.00  0.00     0.046 C 
ATOM     30  N3  UNK A          63.862  23.366  45.866  0.00  0.00    -0.241 NA
ENDBRANCH  22  24
ENDBRANCH   9  22
ENDBRANCH   5   9
TORSDOF 5
ENDMDL
MODEL 5
REMARK VINA RESULT:      -6.3      1.755      2.165
REMARK  5 active torsions:
REMARK  status: ('A' for Active; 'I' for Inactive)
REMARK    1  A    between atoms: C5_5  and  C7_9 
REMARK    2  A    between atoms: C7_9  and  C8_10 
REMARK    3  A    between atoms: C7_9  and  N1_16 
REMARK    4  A    between atoms: C9_11  and  O1_17 
REMARK    5  A    between atoms: N1_16  and  C17_22 
ROOT
ATOM      1  C1  UNK A          65.916  28.180  50.748  0.00  0.00     0.059 A 
ATOM      2  C2  UNK A          64.589  28.528  50.450  0.00  0.00     0.022 A 
ATOM      3  C3  UNK A          64.056  28.233  49.189  0.00  0.00     0.002 A 
ATOM      4  C4  UNK A          64.852  27.599  48.221  0.00  0.00     0.008 A 
ATOM      5  C5  UNK A          66.195  27.253  48.497  0.00  0.00    -0.003 A 
ATOM      6  C6  UNK A          66.719  27.542  49.780  0.00  0.00     0.065 A 
ATOM      7 Cl1  UNK A          66.539  28.557  52.345  0.00  0.00    -0.083 Cl
ATOM      8 Cl2  UNK A          68.370  27.107  50.199  0.00  0.00    -0.082 Cl
ENDROOT
BRANCH   5   9
ATOM      9  C7  UNK A          67.051  26.560  47.427  0.00  0.00     0.137 C 
BRANCH   9  10
ATOM     10  C8  UNK A          66.439  25.209  47.017  0.00  0.00     0.009 A 
ATOM     11  C9  UNK A          66.561  24.056  47.833  0.00  0.00     0.103 A 
ATOM     12  C10 UNK A          66.022  22.814  47.421  0.00  0.00     0.101 A 
ATOM     13  C11 UNK A          65.337  22.749  46.185  0.00  0.00     0.003 A 
ATOM     14  N2  UNK A          66.162  21.709  48.192  0.00  0.00    -0.254 NA
ATOM     15  C12 UNK A          65.205  23.889  45.380  0.00  0.00     0.011 A 
ATOM     16  C16 UNK A          64.786  21.526  45.763  0.00  0.00     0.012 A 
ATOM     17  C13 UNK A          65.758  25.108  45.788  0.00  0.00     0.009 A 
ATOM     18  C15 UNK A          64.942  20.398  46.579  0.00  0.00     0.021 A 
ATOM     19  C14 UNK A          65.642  20.536  47.786  0.00  0.00     0.112 A 
BRANCH  11  20
ATOM     20  O1  UNK A          67.221  24.126  49.032  0.00  0.00    -0.358 OA
ATOM     21  H1  UNK A          66.769  23.554  49.671  0.00  0.00     0.218 HD
ENDBRANCH  11  20
ENDBRANCH   9  10
BRANCH   9  22
ATOM     22  N1  UNK A          67.288  27.456  46.271  0.00  0.00    -0.318 N 
ATOM     23  HN1 UNK A          66.717  28.290  46.226  0.00  0.00     0.149 HD
BRANCH  22  24
ATOM     24  C17 UNK A          68.388  27.423  45.413  0.00  0.00     0.118 A 
ATOM     25  C18 UNK A          69.184  26.264  45.344  0.00  0.00     0.044 A 
ATOM     26  C19 UNK A          70.317  26.257  44.514  0.00  0.00     0.008 A 
ATOM     27  C20 UNK A          70.623  27.418  43.778  0.00  0.00    -0.033 A 
ATOM     28  C21 UNK A          69.764  28.525  43.897  0.00  0.00     0.116 A 
ATOM     29  C22 UNK A          71.853  27.487  42.888  0.00  0.00     0.046 C 
ATOM     30  N3  UNK A          68.676  28.526  44.690  0.00  0.00    -0.241 NA
ENDBRANCH  22  24
ENDBRANCH   9  22
ENDBRANCH   5   9
TORSDOF 5
ENDMDL
MODEL 6
REMARK VINA RESULT:      -6.2     17.177     18.970
REMARK  5 active torsions:
REMARK  status: ('A' for Active; 'I' for Inactive)
REMARK    1  A    between atoms: C5_5  and  C7_9 
REMARK    2  A    between atoms: C7_9  and  C8_10 
REMARK    3  A    between atoms: C7_9  and  N1_16 
REMARK    4  A    between atoms: C9_11  and  O1_17 
REMARK    5  A    between atoms: N1_16  and  C17_22 
ROOT
ATOM      1  C1  UNK A          56.735  23.543  30.878  0.00  0.00     0.059 A 
ATOM      2  C2  UNK A          57.237  22.871  32.004  0.00  0.00     0.022 A 
ATOM      3  C3  UNK A          57.545  23.590  33.166  0.00  0.00     0.002 A 
ATOM      4  C4  UNK A          57.360  24.981  33.201  0.00  0.00     0.008 A 
ATOM      5  C5  UNK A          56.868  25.678  32.073  0.00  0.00    -0.003 A 
ATOM      6  C6  UNK A          56.547  24.941  30.909  0.00  0.00     0.065 A 
ATOM      7 Cl1  UNK A          56.351  22.602  29.448  0.00  0.00    -0.083 Cl
ATOM      8 Cl2  UNK A          55.899  25.740  29.484  0.00  0.00    -0.082 Cl
ENDROOT
BRANCH   5   9
ATOM      9  C7  UNK A          56.672  27.200  32.128  0.00  0.00     0.137 C 
BRANCH   9  10
ATOM     10  C8  UNK A          55.208  27.559  32.437  0.00  0.00     0.009 A 
ATOM     11  C9  UNK A          54.677  28.841  32.146  0.00  0.00     0.103 A 
ATOM     12  C10 UNK A          53.338  29.165  32.471  0.00  0.00     0.101 A 
ATOM     13  C11 UNK A          52.529  28.174  33.074  0.00  0.00     0.003 A 
ATOM     14  N2  UNK A          52.841  30.399  32.214  0.00  0.00    -0.254 NA
ATOM     15  C12 UNK A          53.047  26.901  33.355  0.00  0.00     0.011 A 
ATOM     16  C16 UNK A          51.193  28.472  33.396  0.00  0.00     0.012 A 
ATOM     17  C13 UNK A          54.379  26.598  33.047  0.00  0.00     0.009 A 
ATOM     18  C15 UNK A          50.703  29.755  33.118  0.00  0.00     0.021 A 
ATOM     19  C14 UNK A          51.566  30.689  32.528  0.00  0.00     0.112 A 
BRANCH  11  20
ATOM     20  O1  UNK A          55.464  29.796  31.556  0.00  0.00    -0.358 OA
ATOM     21  H1  UNK A          55.054  30.066  30.720  0.00  0.00     0.218 HD
ENDBRANCH  11  20
ENDBRANCH   9  10
BRANCH   9  22
ATOM     22  N1  UNK A          57.627  27.827  33.073  0.00  0.00    -0.318 N 
ATOM     23  HN1 UNK A          57.864  27.286  33.895  0.00  0.00     0.149 HD
BRANCH  22  24
ATOM     24  C17 UNK A          58.439  28.931  32.814  0.00  0.00     0.118 A 
ATOM     25  C18 UNK A          59.591  28.779  32.019  0.00  0.00     0.044 A 
ATOM     26  C19 UNK A          60.429  29.886  31.804  0.00  0.00     0.008 A 
ATOM     27  C20 UNK A          60.089  31.116  32.396  0.00  0.00    -0.033 A 
ATOM     28  C21 UNK A          58.911  31.180  33.163  0.00  0.00     0.116 A 
ATOM     29  C22 UNK A          60.970  32.343  32.230  0.00  0.00     0.046 C 
ATOM     30  N3  UNK A          58.108  30.119  33.364  0.00  0.00    -0.241 NA
ENDBRANCH  22  24
ENDBRANCH   9  22
ENDBRANCH   5   9
TORSDOF 5
ENDMDL
MODEL 7
REMARK VINA RESULT:      -6.2      5.856      8.625
REMARK  5 active torsions:
REMARK  status: ('A' for Active; 'I' for Inactive)
REMARK    1  A    between atoms: C5_5  and  C7_9 
REMARK    2  A    between atoms: C7_9  and  C8_10 
REMARK    3  A    between atoms: C7_9  and  N1_16 
REMARK    4  A    between atoms: C9_11  and  O1_17 
REMARK    5  A    between atoms: N1_16  and  C17_22 
ROOT
ATOM      1  C1  UNK A          63.350  18.717  51.384  0.00  0.00     0.059 A 
ATOM      2  C2  UNK A          62.252  18.738  50.510  0.00  0.00     0.022 A 
ATOM      3  C3  UNK A          62.429  18.414  49.158  0.00  0.00     0.002 A 
ATOM      4  C4  UNK A          63.704  18.078  48.678  0.00  0.00     0.008 A 
ATOM      5  C5  UNK A          64.826  18.064  49.539  0.00  0.00    -0.003 A 
ATOM      6  C6  UNK A          64.634  18.379  50.906  0.00  0.00     0.065 A 
ATOM      7 Cl1  UNK A          63.081  19.118  53.071  0.00  0.00    -0.083 Cl
ATOM      8 Cl2  UNK A          65.979  18.346  52.037  0.00  0.00    -0.082 Cl
ENDROOT
BRANCH   5   9
ATOM      9  C7  UNK A          66.214  17.694  48.997  0.00  0.00     0.137 C 
BRANCH   9  10
ATOM     10  C8  UNK A          66.383  16.168  48.901  0.00  0.00     0.009 A 
ATOM     11  C9  UNK A          66.059  15.455  47.719  0.00  0.00     0.103 A 
ATOM     12  C10 UNK A          66.186  14.046  47.662  0.00  0.00     0.101 A 
ATOM     13  C11 UNK A          66.665  13.362  48.804  0.00  0.00     0.003 A 
ATOM     14  N2  UNK A          65.853  13.365  46.539  0.00  0.00    -0.254 NA
ATOM     15  C12 UNK A          66.996  14.064  49.972  0.00  0.00     0.011 A 
ATOM     16  C16 UNK A          66.807  11.964  48.763  0.00  0.00     0.012 A 
ATOM     17  C13 UNK A          66.848  15.455  50.024  0.00  0.00     0.009 A 
ATOM     18  C15 UNK A          66.458  11.284  47.589  0.00  0.00     0.021 A 
ATOM     19  C14 UNK A          65.981  12.027  46.501  0.00  0.00     0.112 A 
BRANCH  11  20
ATOM     20  O1  UNK A          65.601  16.123  46.614  0.00  0.00    -0.358 OA
ATOM     21  H1  UNK A          65.101  15.504  46.059  0.00  0.00     0.218 HD
ENDBRANCH  11  20
ENDBRANCH   9  10
BRANCH   9  22
ATOM     22  N1  UNK A          66.485  18.381  47.712  0.00  0.00    -0.318 N 
ATOM     23  HN1 UNK A          66.771  17.793  46.941  0.00  0.00     0.149 HD
BRANCH  22  24
ATOM     24  C17 UNK A          66.116  19.686  47.381  0.00  0.00     0.118 A 
ATOM     25  C18 UNK A          65.253  19.912  46.292  0.00  0.00     0.044 A 
ATOM     26  C19 UNK A          64.925  21.231  45.937  0.00  0.00     0.008 A 
ATOM     27  C20 UNK A          65.477  22.289  46.684  0.00  0.00    -0.033 A 
ATOM     28  C21 UNK A          66.319  21.970  47.764  0.00  0.00     0.116 A 
ATOM     29  C22 UNK A          65.190  23.739  46.330  0.00  0.00     0.046 C 
ATOM     30  N3  UNK A          66.626  20.704  48.105  0.00  0.00    -0.241 NA
ENDBRANCH  22  24
ENDBRANCH   9  22
ENDBRANCH   5   9
TORSDOF 5
ENDMDL
MODEL 8
REMARK VINA RESULT:      -6.0      6.857     10.921
REMARK  5 active torsions:
REMARK  status: ('A' for Active; 'I' for Inactive)
REMARK    1  A    between atoms: C5_5  and  C7_9 
REMARK    2  A    between atoms: C7_9  and  C8_10 
REMARK    3  A    between atoms: C7_9  and  N1_16 
REMARK    4  A    between atoms: C9_11  and  O1_17 
REMARK    5  A    between atoms: N1_16  and  C17_22 
ROOT
ATOM      1  C1  UNK A          70.433  17.780  48.582  0.00  0.00     0.059 A 
ATOM      2  C2  UNK A          70.933  17.797  47.270  0.00  0.00     0.022 A 
ATOM      3  C3  UNK A          70.141  17.329  46.214  0.00  0.00     0.002 A 
ATOM      4  C4  UNK A          68.852  16.835  46.469  0.00  0.00     0.008 A 
ATOM      5  C5  UNK A          68.334  16.797  47.785  0.00  0.00    -0.003 A 
ATOM      6  C6  UNK A          69.138  17.285  48.843  0.00  0.00     0.065 A 
ATOM      7 Cl1  UNK A          71.455  18.386  49.873  0.00  0.00    -0.083 Cl
ATOM      8 Cl2  UNK A          68.542  17.299  50.497  0.00  0.00    -0.082 Cl
ENDROOT
BRANCH   5   9
ATOM      9  C7  UNK A          66.921  16.254  48.046  0.00  0.00     0.137 C 
BRANCH   9  10
ATOM     10  C8  UNK A          65.900  17.399  48.158  0.00  0.00     0.009 A 
ATOM     11  C9  UNK A          65.486  18.143  47.025  0.00  0.00     0.103 A 
ATOM     12  C10 UNK A          64.573  19.216  47.153  0.00  0.00     0.101 A 
ATOM     13  C11 UNK A          64.061  19.520  48.437  0.00  0.00     0.003 A 
ATOM     14  N2  UNK A          64.199  19.941  46.072  0.00  0.00    -0.254 NA
ATOM     15  C12 UNK A          64.460  18.780  49.559  0.00  0.00     0.011 A 
ATOM     16  C16 UNK A          63.145  20.577  48.584  0.00  0.00     0.012 A 
ATOM     17  C13 UNK A          65.379  17.733  49.423  0.00  0.00     0.009 A 
ATOM     18  C15 UNK A          62.773  21.310  47.449  0.00  0.00     0.021 A 
ATOM     19  C14 UNK A          63.329  20.958  46.212  0.00  0.00     0.112 A 
BRANCH  11  20
ATOM     20  O1  UNK A          65.981  17.840  45.783  0.00  0.00    -0.358 OA
ATOM     21  H1  UNK A          65.246  17.571  45.211  0.00  0.00     0.218 HD
ENDBRANCH  11  20
ENDBRANCH   9  10
BRANCH   9  22
ATOM     22  N1  UNK A          66.542  15.246  47.028  0.00  0.00    -0.318 N 
ATOM     23  HN1 UNK A          66.685  15.509  46.062  0.00  0.00     0.149 HD
BRANCH  22  24
ATOM     24  C17 UNK A          66.287  13.894  47.261  0.00  0.00     0.118 A 
ATOM     25  C18 UNK A          65.889  13.470  48.544  0.00  0.00     0.044 A 
ATOM     26  C19 UNK A          65.681  12.101  48.781  0.00  0.00     0.008 A 
ATOM     27  C20 UNK A          65.882  11.193  47.724  0.00  0.00    -0.033 A 
ATOM     28  C21 UNK A          66.266  11.707  46.472  0.00  0.00     0.116 A 
ATOM     29  C22 UNK A          65.707   9.697  47.924  0.00  0.00     0.046 C 
ATOM     30  N3  UNK A          66.459  13.020  46.247  0.00  0.00    -0.241 NA
ENDBRANCH  22  24
ENDBRANCH   9  22
ENDBRANCH   5   9
TORSDOF 5
ENDMDL
MODEL 9
REMARK VINA RESULT:      -5.8     21.588     24.854
REMARK  5 active torsions:
REMARK  status: ('A' for Active; 'I' for Inactive)
REMARK    1  A    between atoms: C5_5  and  C7_9 
REMARK    2  A    between atoms: C7_9  and  C8_10 
REMARK    3  A    between atoms: C7_9  and  N1_16 
REMARK    4  A    between atoms: C9_11  and  O1_17 
REMARK    5  A    between atoms: N1_16  and  C17_22 
ROOT
ATOM      1  C1  UNK A          44.416  17.107  58.532  0.00  0.00     0.059 A 
ATOM      2  C2  UNK A          44.985  18.320  58.950  0.00  0.00     0.022 A 
ATOM      3  C3  UNK A          45.289  19.311  58.008  0.00  0.00     0.002 A 
ATOM      4  C4  UNK A          45.031  19.087  56.646  0.00  0.00     0.008 A 
ATOM      5  C5  UNK A          44.471  17.867  56.203  0.00  0.00    -0.003 A 
ATOM      6  C6  UNK A          44.154  16.878  57.164  0.00  0.00     0.065 A 
ATOM      7 Cl1  UNK A          44.040  15.898  59.747  0.00  0.00    -0.083 Cl
ATOM      8 Cl2  UNK A          43.423  15.353  56.684  0.00  0.00    -0.082 Cl
ENDROOT
BRANCH   5   9
ATOM      9  C7  UNK A          44.196  17.639  54.709  0.00  0.00     0.137 C 
BRANCH   9  10
ATOM     10  C8  UNK A          42.825  18.209  54.304  0.00  0.00     0.009 A 
ATOM     11  C9  UNK A          42.382  18.201  52.958  0.00  0.00     0.103 A 
ATOM     12  C10 UNK A          41.134  18.762  52.599  0.00  0.00     0.101 A 
ATOM     13  C11 UNK A          40.323  19.315  53.618  0.00  0.00     0.003 A 
ATOM     14  N2  UNK A          40.725  18.775  51.308  0.00  0.00    -0.254 NA
ATOM     15  C12 UNK A          40.752  19.316  54.953  0.00  0.00     0.011 A 
ATOM     16  C16 UNK A          39.074  19.870  53.284  0.00  0.00     0.012 A 
ATOM     17  C13 UNK A          41.998  18.775  55.293  0.00  0.00     0.009 A 
ATOM     18  C15 UNK A          38.674  19.869  51.941  0.00  0.00     0.021 A 
ATOM     19  C14 UNK A          39.534  19.313  50.985  0.00  0.00     0.112 A 
BRANCH  11  20
ATOM     20  O1  UNK A          43.170  17.659  51.975  0.00  0.00    -0.358 OA
ATOM     21  H1  UNK A          44.098  17.863  52.171  0.00  0.00     0.218 HD
ENDBRANCH  11  20
ENDBRANCH   9  10
BRANCH   9  22
ATOM     22  N1  UNK A          45.303  18.166  53.877  0.00  0.00    -0.318 N 
ATOM     23  HN1 UNK A          45.404  19.172  53.850  0.00  0.00     0.149 HD
BRANCH  22  24
ATOM     24  C17 UNK A          46.377  17.431  53.372  0.00  0.00     0.118 A 
ATOM     25  C18 UNK A          46.614  17.406  51.984  0.00  0.00     0.044 A 
ATOM     26  C19 UNK A          47.668  16.625  51.482  0.00  0.00     0.008 A 
ATOM     27  C20 UNK A          48.454  15.887  52.386  0.00  0.00    -0.033 A 
ATOM     28  C21 UNK A          48.154  15.983  53.757  0.00  0.00     0.116 A 
ATOM     29  C22 UNK A          49.587  14.996  51.904  0.00  0.00     0.046 C 
ATOM     30  N3  UNK A          47.147  16.736  54.236  0.00  0.00    -0.241 NA
ENDBRANCH  22  24
ENDBRANCH   9  22
ENDBRANCH   5   9
TORSDOF 5
ENDMDL
