MODEL 1
REMARK VINA RESULT:      -5.9      0.000      0.000
REMARK  5 active torsions:
REMARK  status: ('A' for Active; 'I' for Inactive)
REMARK    1  A    between atoms: C5_6  and  N2_7 
REMARK    2  A    between atoms: N2_7  and  C6_8 
REMARK    3  A    between atoms: C6_8  and  C7_9 
REMARK    4  A    between atoms: C6_8  and  C8_10 
REMARK    5  A    between atoms: C14_17  and  O1_27 
ROOT
ATOM      1  N1  UNK A          59.299  24.664  31.894  0.00  0.00    -0.242 NA
ATOM      2  C1  UNK A          59.830  23.470  31.523  0.00  0.00     0.113 A 
ATOM      3  C2  UNK A          59.214  22.274  31.939  0.00  0.00     0.020 A 
ATOM      4  C3  UNK A          58.049  22.348  32.725  0.00  0.00     0.005 A 
ATOM      5  C4  UNK A          57.519  23.604  33.078  0.00  0.00     0.044 A 
ATOM      6  C5  UNK A          58.170  24.780  32.647  0.00  0.00     0.118 A 
ENDROOT
BRANCH   6   7
ATOM      7  N2  UNK A          57.675  25.999  33.011  0.00  0.00    -0.318 N 
ATOM      8  HN2 UNK A          57.611  26.207  33.997  0.00  0.00     0.149 HD
BRANCH   7   9
ATOM      9  C6  UNK A          57.238  27.006  32.082  0.00  0.00     0.135 C 
BRANCH   9  10
ATOM     10  C7  UNK A          57.962  28.304  32.328  0.00  0.00     0.011 A 
ATOM     11  C14 UNK A          59.330  28.480  31.995  0.00  0.00     0.103 A 
ATOM     12  C15 UNK A          60.014  29.652  32.392  0.00  0.00     0.102 A 
ATOM     13  C16 UNK A          59.327  30.714  33.047  0.00  0.00     0.021 A 
ATOM     14  N3  UNK A          61.352  29.763  32.162  0.00  0.00    -0.253 NA
ATOM     15  C17 UNK A          57.942  30.581  33.300  0.00  0.00     0.051 A 
ATOM     16  C21 UNK A          60.074  31.856  33.425  0.00  0.00     0.013 A 
ATOM     17  C18 UNK A          57.288  29.385  32.951  0.00  0.00     0.030 A 
ATOM     18 Cl2  UNK A          57.001  31.790  34.038  0.00  0.00    -0.084 Cl
ATOM     19  C20 UNK A          61.456  31.925  33.171  0.00  0.00     0.021 A 
ATOM     20  C19 UNK A          62.083  30.842  32.534  0.00  0.00     0.112 A 
BRANCH  11  21
ATOM     21  O1  UNK A          60.019  27.531  31.302  0.00  0.00    -0.358 OA
ATOM     22  HO1 UNK A          59.918  26.681  31.736  0.00  0.00     0.218 HD
ENDBRANCH  11  21
ENDBRANCH   9  10
BRANCH   9  23
ATOM     23  C8  UNK A          55.742  27.106  32.098  0.00  0.00    -0.022 A 
ATOM     24  C9  UNK A          55.046  27.499  30.924  0.00  0.00     0.026 A 
ATOM     25  C10 UNK A          53.642  27.607  30.903  0.00  0.00     0.041 A 
ATOM     26  C11 UNK A          52.904  27.324  32.068  0.00  0.00     0.020 A 
ATOM     27 Cl1  UNK A          52.833  28.072  29.489  0.00  0.00    -0.084 Cl
ATOM     28  C12 UNK A          53.570  26.924  33.239  0.00  0.00     0.002 A 
ATOM     29  C13 UNK A          54.971  26.807  33.249  0.00  0.00     0.006 A 
ENDBRANCH   9  23
ENDBRANCH   7   9
ENDBRANCH   6   7
TORSDOF 5
ENDMDL
MODEL 2
REMARK VINA RESULT:      -5.8     16.842     19.166
REMARK  5 active torsions:
REMARK  status: ('A' for Active; 'I' for Inactive)
REMARK    1  A    between atoms: C5_6  and  N2_7 
REMARK    2  A    between atoms: N2_7  and  C6_8 
REMARK    3  A    between atoms: C6_8  and  C7_9 
REMARK    4  A    between atoms: C6_8  and  C8_10 
REMARK    5  A    between atoms: C14_17  and  O1_27 
ROOT
ATOM      1  N1  UNK A          66.259  27.312  50.811  0.00  0.00    -0.242 NA
ATOM      2  C1  UNK A          65.708  28.369  51.464  0.00  0.00     0.113 A 
ATOM      3  C2  UNK A          64.596  29.029  50.906  0.00  0.00     0.020 A 
ATOM      4  C3  UNK A          64.074  28.566  49.684  0.00  0.00     0.005 A 
ATOM      5  C4  UNK A          64.663  27.458  49.044  0.00  0.00     0.044 A 
ATOM      6  C5  UNK A          65.780  26.828  49.632  0.00  0.00     0.118 A 
ENDROOT
BRANCH   6   7
ATOM      7  N2  UNK A          66.371  25.771  49.000  0.00  0.00    -0.318 N 
ATOM      8  HN2 UNK A          66.883  25.109  49.567  0.00  0.00     0.149 HD
BRANCH   7   9
ATOM      9  C6  UNK A          66.312  25.539  47.583  0.00  0.00     0.135 C 
BRANCH   9  10
ATOM     10  C7  UNK A          65.848  24.135  47.294  0.00  0.00     0.011 A 
ATOM     11  C14 UNK A          64.658  23.869  46.569  0.00  0.00     0.103 A 
ATOM     12  C15 UNK A          64.171  22.546  46.462  0.00  0.00     0.102 A 
ATOM     13  C16 UNK A          64.909  21.449  46.996  0.00  0.00     0.021 A 
ATOM     14  N3  UNK A          62.973  22.314  45.858  0.00  0.00    -0.253 NA
ATOM     15  C17 UNK A          66.142  21.702  47.641  0.00  0.00     0.051 A 
ATOM     16  C21 UNK A          64.360  20.151  46.862  0.00  0.00     0.013 A 
ATOM     17  C18 UNK A          66.585  23.029  47.789  0.00  0.00     0.030 A 
ATOM     18 Cl2  UNK A          67.134  20.479  48.283  0.00  0.00    -0.084 Cl
ATOM     19  C20 UNK A          63.116  19.960  46.233  0.00  0.00     0.021 A 
ATOM     20  C19 UNK A          62.427  21.079  45.738  0.00  0.00     0.112 A 
BRANCH  11  21
ATOM     21  O1  UNK A          63.952  24.869  45.972  0.00  0.00    -0.358 OA
ATOM     22  HO1 UNK A          63.413  25.317  46.629  0.00  0.00     0.218 HD
ENDBRANCH  11  21
ENDBRANCH   9  10
BRANCH   9  23
ATOM     23  C8  UNK A          67.617  25.914  46.946  0.00  0.00    -0.022 A 
ATOM     24  C9  UNK A          68.829  25.762  47.671  0.00  0.00     0.026 A 
ATOM     25  C10 UNK A          70.072  26.108  47.106  0.00  0.00     0.041 A 
ATOM     26  C11 UNK A          70.124  26.618  45.796  0.00  0.00     0.020 A 
ATOM     27 Cl1  UNK A          71.506  25.911  47.989  0.00  0.00    -0.084 Cl
ATOM     28  C12 UNK A          68.940  26.768  45.056  0.00  0.00     0.002 A 
ATOM     29  C13 UNK A          67.703  26.411  45.621  0.00  0.00     0.006 A 
ENDBRANCH   9  23
ENDBRANCH   7   9
ENDBRANCH   6   7
TORSDOF 5
ENDMDL
MODEL 3
REMARK VINA RESULT:      -5.6     25.492     27.808
REMARK  5 active torsions:
REMARK  status: ('A' for Active; 'I' for Inactive)
REMARK    1  A    between atoms: C5_6  and  N2_7 
REMARK    2  A    between atoms: N2_7  and  C6_8 
REMARK    3  A    between atoms: C6_8  and  C7_9 
REMARK    4  A    between atoms: C6_8  and  C8_10 
REMARK    5  A    between atoms: C14_17  and  O1_27 
ROOT
ATOM      1  N1  UNK A          42.363  16.373  54.178  0.00  0.00    -0.242 NA
ATOM      2  C1  UNK A          41.094  16.590  54.611  0.00  0.00     0.113 A 
ATOM      3  C2  UNK A          40.465  17.820  54.338  0.00  0.00     0.020 A 
ATOM      4  C3  UNK A          41.169  18.795  53.608  0.00  0.00     0.005 A 
ATOM      5  C4  UNK A          42.478  18.529  53.162  0.00  0.00     0.044 A 
ATOM      6  C5  UNK A          43.076  17.287  53.462  0.00  0.00     0.118 A 
ENDROOT
BRANCH   6   7
ATOM      7  N2  UNK A          44.356  17.036  53.056  0.00  0.00    -0.318 N 
ATOM      8  HN2 UNK A          44.577  17.179  52.081  0.00  0.00     0.149 HD
BRANCH   7   9
ATOM      9  C6  UNK A          45.408  16.584  53.925  0.00  0.00     0.135 C 
BRANCH   9  10
ATOM     10  C7  UNK A          45.587  17.534  55.080  0.00  0.00     0.011 A 
ATOM     11  C14 UNK A          45.948  18.893  54.890  0.00  0.00     0.103 A 
ATOM     12  C15 UNK A          46.267  19.707  56.001  0.00  0.00     0.102 A 
ATOM     13  C16 UNK A          46.143  19.210  57.331  0.00  0.00     0.021 A 
ATOM     14  N3  UNK A          46.717  20.976  55.801  0.00  0.00    -0.253 NA
ATOM     15  C17 UNK A          45.696  17.883  57.529  0.00  0.00     0.051 A 
ATOM     16  C21 UNK A          46.487  20.076  58.398  0.00  0.00     0.013 A 
ATOM     17  C18 UNK A          45.437  17.068  56.412  0.00  0.00     0.030 A 
ATOM     18 Cl2  UNK A          45.468  17.188  59.063  0.00  0.00    -0.084 Cl
ATOM     19  C20 UNK A          46.951  21.379  58.144  0.00  0.00     0.021 A 
ATOM     20  C19 UNK A          47.067  21.809  56.812  0.00  0.00     0.112 A 
BRANCH  11  21
ATOM     21  O1  UNK A          46.009  19.443  53.646  0.00  0.00    -0.358 OA
ATOM     22  HO1 UNK A          46.564  20.226  53.669  0.00  0.00     0.218 HD
ENDBRANCH  11  21
ENDBRANCH   9  10
BRANCH   9  23
ATOM     23  C8  UNK A          46.651  16.316  53.131  0.00  0.00    -0.022 A 
ATOM     24  C9  UNK A          47.790  15.753  53.767  0.00  0.00     0.026 A 
ATOM     25  C10 UNK A          48.976  15.492  53.054  0.00  0.00     0.041 A 
ATOM     26  C11 UNK A          49.043  15.793  51.681  0.00  0.00     0.020 A 
ATOM     27 Cl1  UNK A          50.320  14.815  53.832  0.00  0.00    -0.084 Cl
ATOM     28  C12 UNK A          47.927  16.341  51.028  0.00  0.00     0.002 A 
ATOM     29  C13 UNK A          46.742  16.589  51.743  0.00  0.00     0.006 A 
ENDBRANCH   9  23
ENDBRANCH   7   9
ENDBRANCH   6   7
TORSDOF 5
ENDMDL
MODEL 4
REMARK VINA RESULT:      -5.5     18.559     20.902
REMARK  5 active torsions:
REMARK  status: ('A' for Active; 'I' for Inactive)
REMARK    1  A    between atoms: C5_6  and  N2_7 
REMARK    2  A    between atoms: N2_7  and  C6_8 
REMARK    3  A    between atoms: C6_8  and  C7_9 
REMARK    4  A    between atoms: C6_8  and  C8_10 
REMARK    5  A    between atoms: C14_17  and  O1_27 
ROOT
ATOM      1  N1  UNK A          65.266  21.523  45.750  0.00  0.00    -0.242 NA
ATOM      2  C1  UNK A          64.684  22.647  45.257  0.00  0.00     0.113 A 
ATOM      3  C2  UNK A          63.282  22.779  45.291  0.00  0.00     0.020 A 
ATOM      4  C3  UNK A          62.516  21.739  45.850  0.00  0.00     0.005 A 
ATOM      5  C4  UNK A          63.156  20.594  46.364  0.00  0.00     0.044 A 
ATOM      6  C5  UNK A          64.563  20.498  46.305  0.00  0.00     0.118 A 
ENDROOT
BRANCH   6   7
ATOM      7  N2  UNK A          65.184  19.377  46.778  0.00  0.00    -0.318 N 
ATOM      8  HN2 UNK A          65.155  18.545  46.206  0.00  0.00     0.149 HD
BRANCH   7   9
ATOM      9  C6  UNK A          65.876  19.305  48.035  0.00  0.00     0.135 C 
BRANCH   9  10
ATOM     10  C7  UNK A          66.818  18.129  48.056  0.00  0.00     0.011 A 
ATOM     11  C14 UNK A          66.477  16.880  47.475  0.00  0.00     0.103 A 
ATOM     12  C15 UNK A          67.316  15.757  47.659  0.00  0.00     0.102 A 
ATOM     13  C16 UNK A          68.559  15.877  48.347  0.00  0.00     0.021 A 
ATOM     14  N3  UNK A          66.927  14.540  47.191  0.00  0.00    -0.253 NA
ATOM     15  C17 UNK A          68.945  17.142  48.849  0.00  0.00     0.051 A 
ATOM     16  C21 UNK A          69.347  14.711  48.503  0.00  0.00     0.013 A 
ATOM     17  C18 UNK A          68.073  18.237  48.708  0.00  0.00     0.030 A 
ATOM     18 Cl2  UNK A          70.417  17.424  49.650  0.00  0.00    -0.084 Cl
ATOM     19  C20 UNK A          68.902  13.473  48.005  0.00  0.00     0.021 A 
ATOM     20  C19 UNK A          67.663  13.412  47.349  0.00  0.00     0.112 A 
BRANCH  11  21
ATOM     21  O1  UNK A          65.340  16.725  46.742  0.00  0.00    -0.358 OA
ATOM     22  HO1 UNK A          64.849  17.550  46.734  0.00  0.00     0.218 HD
ENDBRANCH  11  21
ENDBRANCH   9  10
BRANCH   9  23
ATOM     23  C8  UNK A          64.893  19.343  49.167  0.00  0.00    -0.022 A 
ATOM     24  C9  UNK A          65.040  20.306  50.200  0.00  0.00     0.026 A 
ATOM     25  C10 UNK A          64.137  20.369  51.280  0.00  0.00     0.041 A 
ATOM     26  C11 UNK A          63.064  19.461  51.344  0.00  0.00     0.020 A 
ATOM     27 Cl1  UNK A          64.329  21.531  52.499  0.00  0.00    -0.084 Cl
ATOM     28  C12 UNK A          62.892  18.506  50.329  0.00  0.00     0.002 A 
ATOM     29  C13 UNK A          63.791  18.456  49.248  0.00  0.00     0.006 A 
ENDBRANCH   9  23
ENDBRANCH   7   9
ENDBRANCH   6   7
TORSDOF 5
ENDMDL
MODEL 5
REMARK VINA RESULT:      -5.4     24.386     26.304
REMARK  5 active torsions:
REMARK  status: ('A' for Active; 'I' for Inactive)
REMARK    1  A    between atoms: C5_6  and  N2_7 
REMARK    2  A    between atoms: N2_7  and  C6_8 
REMARK    3  A    between atoms: C6_8  and  C7_9 
REMARK    4  A    between atoms: C6_8  and  C8_10 
REMARK    5  A    between atoms: C14_17  and  O1_27 
ROOT
ATOM      1  N1  UNK A          68.187   5.283  33.488  0.00  0.00    -0.242 NA
ATOM      2  C1  UNK A          69.292   6.041  33.716  0.00  0.00     0.113 A 
ATOM      3  C2  UNK A          69.415   6.746  34.929  0.00  0.00     0.020 A 
ATOM      4  C3  UNK A          68.388   6.637  35.885  0.00  0.00     0.005 A 
ATOM      5  C4  UNK A          67.264   5.830  35.619  0.00  0.00     0.044 A 
ATOM      6  C5  UNK A          67.175   5.145  34.388  0.00  0.00     0.118 A 
ENDROOT
BRANCH   6   7
ATOM      7  N2  UNK A          66.074   4.384  34.116  0.00  0.00    -0.318 N 
ATOM      8  HN2 UNK A          65.168   4.764  34.352  0.00  0.00     0.149 HD
BRANCH   7   9
ATOM      9  C6  UNK A          66.120   3.080  33.514  0.00  0.00     0.135 C 
BRANCH   9  10
ATOM     10  C7  UNK A          65.339   3.061  32.226  0.00  0.00     0.011 A 
ATOM     11  C14 UNK A          65.835   3.652  31.036  0.00  0.00     0.103 A 
ATOM     12  C15 UNK A          65.005   3.760  29.896  0.00  0.00     0.102 A 
ATOM     13  C16 UNK A          63.696   3.197  29.888  0.00  0.00     0.021 A 
ATOM     14  N3  UNK A          65.453   4.424  28.795  0.00  0.00    -0.253 NA
ATOM     15  C17 UNK A          63.231   2.527  31.044  0.00  0.00     0.051 A 
ATOM     16  C21 UNK A          62.915   3.348  28.717  0.00  0.00     0.013 A 
ATOM     17  C18 UNK A          64.047   2.479  32.189  0.00  0.00     0.030 A 
ATOM     18 Cl2  UNK A          61.707   1.781  31.147  0.00  0.00    -0.084 Cl
ATOM     19  C20 UNK A          63.418   4.046  27.604  0.00  0.00     0.021 A 
ATOM     20  C19 UNK A          64.710   4.592  27.673  0.00  0.00     0.112 A 
BRANCH  11  21
ATOM     21  O1  UNK A          67.105   4.138  30.960  0.00  0.00    -0.358 OA
ATOM     22  HO1 UNK A          67.092   5.004  30.544  0.00  0.00     0.218 HD
ENDBRANCH  11  21
ENDBRANCH   9  10
BRANCH   9  23
ATOM     23  C8  UNK A          65.712   2.038  34.513  0.00  0.00    -0.022 A 
ATOM     24  C9  UNK A          65.878   0.661  34.209  0.00  0.00     0.026 A 
ATOM     25  C10 UNK A          65.502  -0.344  35.122  0.00  0.00     0.041 A 
ATOM     26  C11 UNK A          64.947   0.016  36.364  0.00  0.00     0.020 A 
ATOM     27 Cl1  UNK A          65.716  -1.981  34.739  0.00  0.00    -0.084 Cl
ATOM     28  C12 UNK A          64.782   1.371  36.691  0.00  0.00     0.002 A 
ATOM     29  C13 UNK A          65.169   2.371  35.780  0.00  0.00     0.006 A 
ENDBRANCH   9  23
ENDBRANCH   7   9
ENDBRANCH   6   7
TORSDOF 5
ENDMDL
MODEL 6
REMARK VINA RESULT:      -5.4     25.798     28.050
REMARK  5 active torsions:
REMARK  status: ('A' for Active; 'I' for Inactive)
REMARK    1  A    between atoms: C5_6  and  N2_7 
REMARK    2  A    between atoms: N2_7  and  C6_8 
REMARK    3  A    between atoms: C6_8  and  C7_9 
REMARK    4  A    between atoms: C6_8  and  C8_10 
REMARK    5  A    between atoms: C14_17  and  O1_27 
ROOT
ATOM      1  N1  UNK A          42.525  16.921  53.380  0.00  0.00    -0.242 NA
ATOM      2  C1  UNK A          41.216  16.641  53.615  0.00  0.00     0.113 A 
ATOM      3  C2  UNK A          40.505  17.388  54.573  0.00  0.00     0.020 A 
ATOM      4  C3  UNK A          41.170  18.422  55.258  0.00  0.00     0.005 A 
ATOM      5  C4  UNK A          42.523  18.693  54.977  0.00  0.00     0.044 A 
ATOM      6  C5  UNK A          43.203  17.916  54.015  0.00  0.00     0.118 A 
ENDROOT
BRANCH   6   7
ATOM      7  N2  UNK A          44.523  18.158  53.760  0.00  0.00    -0.318 N 
ATOM      8  HN2 UNK A          44.750  18.897  53.110  0.00  0.00     0.149 HD
BRANCH   7   9
ATOM      9  C6  UNK A          45.609  17.430  54.356  0.00  0.00     0.135 C 
BRANCH   9  10
ATOM     10  C7  UNK A          46.200  18.205  55.505  0.00  0.00     0.011 A 
ATOM     11  C14 UNK A          46.455  17.607  56.766  0.00  0.00     0.103 A 
ATOM     12  C15 UNK A          46.854  18.404  57.864  0.00  0.00     0.102 A 
ATOM     13  C16 UNK A          47.097  19.799  57.705  0.00  0.00     0.021 A 
ATOM     14  N3  UNK A          46.990  17.838  59.095  0.00  0.00    -0.253 NA
ATOM     15  C17 UNK A          46.932  20.383  56.427  0.00  0.00     0.051 A 
ATOM     16  C21 UNK A          47.486  20.540  58.847  0.00  0.00     0.013 A 
ATOM     17  C18 UNK A          46.479  19.588  55.358  0.00  0.00     0.030 A 
ATOM     18 Cl2  UNK A          47.229  22.024  56.099  0.00  0.00    -0.084 Cl
ATOM     19  C20 UNK A          47.610  19.913  60.100  0.00  0.00     0.021 A 
ATOM     20  C19 UNK A          47.344  18.538  60.200  0.00  0.00     0.112 A 
BRANCH  11  21
ATOM     21  O1  UNK A          46.313  16.266  56.957  0.00  0.00    -0.358 OA
ATOM     22  HO1 UNK A          46.432  15.809  56.122  0.00  0.00     0.218 HD
ENDBRANCH  11  21
ENDBRANCH   9  10
BRANCH   9  23
ATOM     23  C8  UNK A          46.593  17.019  53.301  0.00  0.00    -0.022 A 
ATOM     24  C9  UNK A          47.652  16.131  53.628  0.00  0.00     0.026 A 
ATOM     25  C10 UNK A          48.596  15.727  52.663  0.00  0.00     0.041 A 
ATOM     26  C11 UNK A          48.496  16.210  51.346  0.00  0.00     0.020 A 
ATOM     27 Cl1  UNK A          49.848  14.662  53.075  0.00  0.00    -0.084 Cl
ATOM     28  C12 UNK A          47.451  17.082  50.996  0.00  0.00     0.002 A 
ATOM     29  C13 UNK A          46.505  17.473  51.961  0.00  0.00     0.006 A 
ENDBRANCH   9  23
ENDBRANCH   7   9
ENDBRANCH   6   7
TORSDOF 5
ENDMDL
MODEL 7
REMARK VINA RESULT:      -5.4     18.565     20.877
REMARK  5 active torsions:
REMARK  status: ('A' for Active; 'I' for Inactive)
REMARK    1  A    between atoms: C5_6  and  N2_7 
REMARK    2  A    between atoms: N2_7  and  C6_8 
REMARK    3  A    between atoms: C6_8  and  C7_9 
REMARK    4  A    between atoms: C6_8  and  C8_10 
REMARK    5  A    between atoms: C14_17  and  O1_27 
ROOT
ATOM      1  N1  UNK A          65.305  21.061  46.045  0.00  0.00    -0.242 NA
ATOM      2  C1  UNK A          65.095  22.291  45.508  0.00  0.00     0.113 A 
ATOM      3  C2  UNK A          63.782  22.786  45.391  0.00  0.00     0.020 A 
ATOM      4  C3  UNK A          62.714  21.992  45.849  0.00  0.00     0.005 A 
ATOM      5  C4  UNK A          62.971  20.727  46.414  0.00  0.00     0.044 A 
ATOM      6  C5  UNK A          64.301  20.264  46.507  0.00  0.00     0.118 A 
ENDROOT
BRANCH   6   7
ATOM      7  N2  UNK A          64.552  19.028  47.028  0.00  0.00    -0.318 N 
ATOM      8  HN2 UNK A          64.126  18.231  46.578  0.00  0.00     0.149 HD
BRANCH   7   9
ATOM      9  C6  UNK A          65.384  18.786  48.176  0.00  0.00     0.135 C 
BRANCH   9  10
ATOM     10  C7  UNK A          66.334  17.648  47.912  0.00  0.00     0.011 A 
ATOM     11  C14 UNK A          67.723  17.856  47.713  0.00  0.00     0.103 A 
ATOM     12  C15 UNK A          68.552  16.785  47.306  0.00  0.00     0.102 A 
ATOM     13  C16 UNK A          68.032  15.464  47.178  0.00  0.00     0.021 A 
ATOM     14  N3  UNK A          69.861  17.018  47.013  0.00  0.00    -0.253 NA
ATOM     15  C17 UNK A          66.665  15.235  47.464  0.00  0.00     0.051 A 
ATOM     16  C21 UNK A          68.914  14.440  46.758  0.00  0.00     0.013 A 
ATOM     17  C18 UNK A          65.841  16.321  47.812  0.00  0.00     0.030 A 
ATOM     18 Cl2  UNK A          65.934  13.703  47.388  0.00  0.00    -0.084 Cl
ATOM     19  C20 UNK A          70.259  14.728  46.462  0.00  0.00     0.021 A 
ATOM     20  C19 UNK A          70.713  16.050  46.592  0.00  0.00     0.112 A 
BRANCH  11  21
ATOM     21  O1  UNK A          68.291  19.080  47.895  0.00  0.00    -0.358 OA
ATOM     22  HO1 UNK A          68.927  19.245  47.195  0.00  0.00     0.218 HD
ENDBRANCH  11  21
ENDBRANCH   9  10
BRANCH   9  23
ATOM     23  C8  UNK A          64.535  18.627  49.402  0.00  0.00    -0.022 A 
ATOM     24  C9  UNK A          65.144  18.581  50.684  0.00  0.00     0.026 A 
ATOM     25  C10 UNK A          64.378  18.429  51.856  0.00  0.00     0.041 A 
ATOM     26  C11 UNK A          62.978  18.317  51.764  0.00  0.00     0.020 A 
ATOM     27 Cl1  UNK A          65.126  18.383  53.376  0.00  0.00    -0.084 Cl
ATOM     28  C12 UNK A          62.352  18.369  50.508  0.00  0.00     0.002 A 
ATOM     29  C13 UNK A          63.122  18.533  49.342  0.00  0.00     0.006 A 
ENDBRANCH   9  23
ENDBRANCH   7   9
ENDBRANCH   6   7
TORSDOF 5
ENDMDL
MODEL 8
REMARK VINA RESULT:      -5.3     18.566     20.548
REMARK  5 active torsions:
REMARK  status: ('A' for Active; 'I' for Inactive)
REMARK    1  A    between atoms: C5_6  and  N2_7 
REMARK    2  A    between atoms: N2_7  and  C6_8 
REMARK    3  A    between atoms: C6_8  and  C7_9 
REMARK    4  A    between atoms: C6_8  and  C8_10 
REMARK    5  A    between atoms: C14_17  and  O1_27 
ROOT
ATOM      1  N1  UNK A          65.405  18.523  50.899  0.00  0.00    -0.242 NA
ATOM      2  C1  UNK A          64.806  17.690  51.790  0.00  0.00     0.113 A 
ATOM      3  C2  UNK A          63.433  17.838  52.067  0.00  0.00     0.020 A 
ATOM      4  C3  UNK A          62.710  18.845  51.401  0.00  0.00     0.005 A 
ATOM      5  C4  UNK A          63.363  19.680  50.473  0.00  0.00     0.044 A 
ATOM      6  C5  UNK A          64.741  19.504  50.228  0.00  0.00     0.118 A 
ENDROOT
BRANCH   6   7
ATOM      7  N2  UNK A          65.383  20.330  49.350  0.00  0.00    -0.318 N 
ATOM      8  HN2 UNK A          65.719  21.218  49.697  0.00  0.00     0.149 HD
BRANCH   7   9
ATOM      9  C6  UNK A          65.612  20.019  47.965  0.00  0.00     0.135 C 
BRANCH   9  10
ATOM     10  C7  UNK A          66.913  19.278  47.796  0.00  0.00     0.011 A 
ATOM     11  C14 UNK A          66.988  18.032  47.122  0.00  0.00     0.103 A 
ATOM     12  C15 UNK A          68.193  17.291  47.129  0.00  0.00     0.102 A 
ATOM     13  C16 UNK A          69.373  17.819  47.728  0.00  0.00     0.021 A 
ATOM     14  N3  UNK A          68.224  16.049  46.572  0.00  0.00    -0.253 NA
ATOM     15  C17 UNK A          69.325  19.101  48.322  0.00  0.00     0.051 A 
ATOM     16  C21 UNK A          70.542  17.021  47.706  0.00  0.00     0.013 A 
ATOM     17  C18 UNK A          68.105  19.801  48.358  0.00  0.00     0.030 A 
ATOM     18 Cl2  UNK A          70.672  19.857  49.033  0.00  0.00    -0.084 Cl
ATOM     19  C20 UNK A          70.527  15.741  47.123  0.00  0.00     0.021 A 
ATOM     20  C19 UNK A          69.331  15.267  46.560  0.00  0.00     0.112 A 
BRANCH  11  21
ATOM     21  O1  UNK A          65.913  17.514  46.466  0.00  0.00    -0.358 OA
ATOM     22  HO1 UNK A          66.206  17.087  45.658  0.00  0.00     0.218 HD
ENDBRANCH  11  21
ENDBRANCH   9  10
BRANCH   9  23
ATOM     23  C8  UNK A          65.481  21.259  47.132  0.00  0.00    -0.022 A 
ATOM     24  C9  UNK A          65.713  22.533  47.716  0.00  0.00     0.026 A 
ATOM     25  C10 UNK A          65.595  23.719  46.964  0.00  0.00     0.041 A 
ATOM     26  C11 UNK A          65.239  23.649  45.604  0.00  0.00     0.020 A 
ATOM     27 Cl1  UNK A          65.882  25.227  47.681  0.00  0.00    -0.084 Cl
ATOM     28  C12 UNK A          65.015  22.400  45.002  0.00  0.00     0.002 A 
ATOM     29  C13 UNK A          65.145  21.219  45.755  0.00  0.00     0.006 A 
ENDBRANCH   9  23
ENDBRANCH   7   9
ENDBRANCH   6   7
TORSDOF 5
ENDMDL
MODEL 9
REMARK VINA RESULT:      -5.1      3.902      7.610
REMARK  5 active torsions:
REMARK  status: ('A' for Active; 'I' for Inactive)
REMARK    1  A    between atoms: C5_6  and  N2_7 
REMARK    2  A    between atoms: N2_7  and  C6_8 
REMARK    3  A    between atoms: C6_8  and  C7_9 
REMARK    4  A    between atoms: C6_8  and  C8_10 
REMARK    5  A    between atoms: C14_17  and  O1_27 
ROOT
ATOM      1  N1  UNK A          56.290  24.665  30.729  0.00  0.00    -0.242 NA
ATOM      2  C1  UNK A          57.028  23.563  31.028  0.00  0.00     0.113 A 
ATOM      3  C2  UNK A          57.594  23.430  32.310  0.00  0.00     0.020 A 
ATOM      4  C3  UNK A          57.370  24.445  33.260  0.00  0.00     0.005 A 
ATOM      5  C4  UNK A          56.588  25.566  32.918  0.00  0.00     0.044 A 
ATOM      6  C5  UNK A          56.043  25.664  31.620  0.00  0.00     0.118 A 
ENDROOT
BRANCH   6   7
ATOM      7  N2  UNK A          55.308  26.763  31.276  0.00  0.00    -0.318 N 
ATOM      8  HN2 UNK A          55.603  27.294  30.469  0.00  0.00     0.149 HD
BRANCH   7   9
ATOM      9  C6  UNK A          54.143  27.212  31.988  0.00  0.00     0.135 C 
BRANCH   9  10
ATOM     10  C7  UNK A          52.896  26.602  31.404  0.00  0.00     0.011 A 
ATOM     11  C14 UNK A          51.811  26.183  32.215  0.00  0.00     0.103 A 
ATOM     12  C15 UNK A          50.732  25.466  31.646  0.00  0.00     0.102 A 
ATOM     13  C16 UNK A          50.668  25.234  30.242  0.00  0.00     0.021 A 
ATOM     14  N3  UNK A          49.750  24.974  32.450  0.00  0.00    -0.253 NA
ATOM     15  C17 UNK A          51.704  25.731  29.417  0.00  0.00     0.051 A 
ATOM     16  C21 UNK A          49.565  24.503  29.739  0.00  0.00     0.013 A 
ATOM     17  C18 UNK A          52.799  26.391  30.005  0.00  0.00     0.030 A 
ATOM     18 Cl2  UNK A          51.724  25.555  27.726  0.00  0.00    -0.084 Cl
ATOM     19  C20 UNK A          48.575  24.010  30.608  0.00  0.00     0.021 A 
ATOM     20  C19 UNK A          48.697  24.257  31.985  0.00  0.00     0.112 A 
BRANCH  11  21
ATOM     21  O1  UNK A          51.781  26.443  33.552  0.00  0.00    -0.358 OA
ATOM     22  HO1 UNK A          51.503  27.351  33.695  0.00  0.00     0.218 HD
ENDBRANCH  11  21
ENDBRANCH   9  10
BRANCH   9  23
ATOM     23  C8  UNK A          54.135  28.710  32.067  0.00  0.00    -0.022 A 
ATOM     24  C9  UNK A          53.007  29.385  32.606  0.00  0.00     0.026 A 
ATOM     25  C10 UNK A          52.963  30.790  32.691  0.00  0.00     0.041 A 
ATOM     26  C11 UNK A          54.055  31.550  32.234  0.00  0.00     0.020 A 
ATOM     27 Cl1  UNK A          51.609  31.573  33.344  0.00  0.00    -0.084 Cl
ATOM     28  C12 UNK A          55.186  30.905  31.705  0.00  0.00     0.002 A 
ATOM     29  C13 UNK A          55.228  29.501  31.633  0.00  0.00     0.006 A 
ENDBRANCH   9  23
ENDBRANCH   7   9
ENDBRANCH   6   7
TORSDOF 5
ENDMDL
