MODEL 1
REMARK VINA RESULT:      -6.5      0.000      0.000
REMARK  5 active torsions:
REMARK  status: ('A' for Active; 'I' for Inactive)
REMARK    1  A    between atoms: C5_5  and  C7_9 
REMARK    2  A    between atoms: C7_9  and  C8_10 
REMARK    3  A    between atoms: C7_9  and  N1_16 
REMARK    4  A    between atoms: C9_11  and  O1_17 
REMARK    5  A    between atoms: N1_16  and  C17_22 
ROOT
ATOM      1  C1  UNK A          64.972  27.153  50.777  0.00  0.00     0.059 A 
ATOM      2  C2  UNK A          64.146  28.154  50.242  0.00  0.00     0.022 A 
ATOM      3  C3  UNK A          64.099  28.355  48.856  0.00  0.00     0.002 A 
ATOM      4  C4  UNK A          64.886  27.562  48.005  0.00  0.00     0.008 A 
ATOM      5  C5  UNK A          65.735  26.558  48.526  0.00  0.00    -0.003 A 
ATOM      6  C6  UNK A          65.763  26.353  49.926  0.00  0.00     0.065 A 
ATOM      7 Cl1  UNK A          64.990  26.928  52.517  0.00  0.00    -0.083 Cl
ATOM      8 Cl2  UNK A          66.770  25.099  50.635  0.00  0.00    -0.082 Cl
ENDROOT
BRANCH   5   9
ATOM      9  C7  UNK A          66.588  25.699  47.580  0.00  0.00     0.137 C 
BRANCH   9  10
ATOM     10  C8  UNK A          65.967  24.306  47.385  0.00  0.00     0.009 A 
ATOM     11  C9  UNK A          64.815  24.109  46.582  0.00  0.00     0.103 A 
ATOM     12  C10 UNK A          64.236  22.826  46.442  0.00  0.00     0.101 A 
ATOM     13  C11 UNK A          64.843  21.733  47.105  0.00  0.00     0.003 A 
ATOM     14  N2  UNK A          63.120  22.645  45.694  0.00  0.00    -0.254 NA
ATOM     15  C12 UNK A          65.988  21.921  47.892  0.00  0.00     0.011 A 
ATOM     16  C16 UNK A          64.288  20.447  46.972  0.00  0.00     0.012 A 
ATOM     17  C13 UNK A          66.541  23.198  48.038  0.00  0.00     0.009 A 
ATOM     18  C15 UNK A          63.136  20.288  46.191  0.00  0.00     0.021 A 
ATOM     19  C14 UNK A          62.584  21.418  45.572  0.00  0.00     0.112 A 
BRANCH  11  20
ATOM     20  O1  UNK A          64.234  25.171  45.938  0.00  0.00    -0.358 OA
ATOM     21  H1  UNK A          63.625  24.831  45.263  0.00  0.00     0.218 HD
ENDBRANCH  11  20
ENDBRANCH   9  10
BRANCH   9  22
ATOM     22  N1  UNK A          66.834  26.402  46.299  0.00  0.00    -0.318 N 
ATOM     23  HN1 UNK A          66.026  26.559  45.712  0.00  0.00     0.149 HD
BRANCH  22  24
ATOM     24  C17 UNK A          67.986  27.111  45.954  0.00  0.00     0.118 A 
ATOM     25  C18 UNK A          68.886  26.568  45.018  0.00  0.00     0.044 A 
ATOM     26  C19 UNK A          70.066  27.267  44.714  0.00  0.00     0.008 A 
ATOM     27  C20 UNK A          70.313  28.491  45.363  0.00  0.00    -0.033 A 
ATOM     28  C21 UNK A          69.351  28.965  46.274  0.00  0.00     0.116 A 
ATOM     29  C22 UNK A          71.586  29.280  45.104  0.00  0.00     0.046 C 
ATOM     30  N3  UNK A          68.219  28.295  46.559  0.00  0.00    -0.241 NA
ENDBRANCH  22  24
ENDBRANCH   9  22
ENDBRANCH   5   9
TORSDOF 5
ENDMDL
MODEL 2
REMARK VINA RESULT:      -6.3     17.002     19.059
REMARK  5 active torsions:
REMARK  status: ('A' for Active; 'I' for Inactive)
REMARK    1  A    between atoms: C5_5  and  C7_9 
REMARK    2  A    between atoms: C7_9  and  C8_10 
REMARK    3  A    between atoms: C7_9  and  N1_16 
REMARK    4  A    between atoms: C9_11  and  O1_17 
REMARK    5  A    between atoms: N1_16  and  C17_22 
ROOT
ATOM      1  C1  UNK A          58.444  23.010  30.764  0.00  0.00     0.059 A 
ATOM      2  C2  UNK A          58.237  22.258  31.931  0.00  0.00     0.022 A 
ATOM      3  C3  UNK A          57.588  22.837  33.029  0.00  0.00     0.002 A 
ATOM      4  C4  UNK A          57.153  24.171  32.964  0.00  0.00     0.008 A 
ATOM      5  C5  UNK A          57.363  24.949  31.802  0.00  0.00    -0.003 A 
ATOM      6  C6  UNK A          58.007  24.350  30.693  0.00  0.00     0.065 A 
ATOM      7 Cl1  UNK A          59.250  22.241  29.408  0.00  0.00    -0.083 Cl
ATOM      8 Cl2  UNK A          58.269  25.250  29.207  0.00  0.00    -0.082 Cl
ENDROOT
BRANCH   5   9
ATOM      9  C7  UNK A          56.881  26.406  31.748  0.00  0.00     0.137 C 
BRANCH   9  10
ATOM     10  C8  UNK A          55.351  26.489  31.890  0.00  0.00     0.009 A 
ATOM     11  C9  UNK A          54.487  26.282  30.785  0.00  0.00     0.103 A 
ATOM     12  C10 UNK A          53.084  26.398  30.927  0.00  0.00     0.101 A 
ATOM     13  C11 UNK A          52.556  26.703  32.203  0.00  0.00     0.003 A 
ATOM     14  N2  UNK A          52.263  26.224  29.863  0.00  0.00    -0.254 NA
ATOM     15  C12 UNK A          53.405  26.899  33.301  0.00  0.00     0.011 A 
ATOM     16  C16 UNK A          51.163  26.813  32.367  0.00  0.00     0.012 A 
ATOM     17  C13 UNK A          54.793  26.801  33.145  0.00  0.00     0.009 A 
ATOM     18  C15 UNK A          50.336  26.627  31.252  0.00  0.00     0.021 A 
ATOM     19  C14 UNK A          50.931  26.337  30.017  0.00  0.00     0.112 A 
BRANCH  11  20
ATOM     20  O1  UNK A          55.005  25.981  29.552  0.00  0.00    -0.358 OA
ATOM     21  H1  UNK A          55.778  26.545  29.392  0.00  0.00     0.218 HD
ENDBRANCH  11  20
ENDBRANCH   9  10
BRANCH   9  22
ATOM     22  N1  UNK A          57.594  27.241  32.744  0.00  0.00    -0.318 N 
ATOM     23  HN1 UNK A          57.493  26.966  33.713  0.00  0.00     0.149 HD
BRANCH  22  24
ATOM     24  C17 UNK A          58.601  28.167  32.473  0.00  0.00     0.118 A 
ATOM     25  C18 UNK A          59.543  27.899  31.463  0.00  0.00     0.044 A 
ATOM     26  C19 UNK A          60.582  28.816  31.230  0.00  0.00     0.008 A 
ATOM     27  C20 UNK A          60.649  29.977  32.023  0.00  0.00    -0.033 A 
ATOM     28  C21 UNK A          59.657  30.171  33.001  0.00  0.00     0.116 A 
ATOM     29  C22 UNK A          61.766  30.991  31.845  0.00  0.00     0.046 C 
ATOM     30  N3  UNK A          58.660  29.292  33.217  0.00  0.00    -0.241 NA
ENDBRANCH  22  24
ENDBRANCH   9  22
ENDBRANCH   5   9
TORSDOF 5
ENDMDL
MODEL 3
REMARK VINA RESULT:      -6.2      1.677      2.088
REMARK  5 active torsions:
REMARK  status: ('A' for Active; 'I' for Inactive)
REMARK    1  A    between atoms: C5_5  and  C7_9 
REMARK    2  A    between atoms: C7_9  and  C8_10 
REMARK    3  A    between atoms: C7_9  and  N1_16 
REMARK    4  A    between atoms: C9_11  and  O1_17 
REMARK    5  A    between atoms: N1_16  and  C17_22 
ROOT
ATOM      1  C1  UNK A          65.421  27.967  50.597  0.00  0.00     0.059 A 
ATOM      2  C2  UNK A          64.172  28.391  50.116  0.00  0.00     0.022 A 
ATOM      3  C3  UNK A          63.812  28.136  48.787  0.00  0.00     0.002 A 
ATOM      4  C4  UNK A          64.704  27.465  47.935  0.00  0.00     0.008 A 
ATOM      5  C5  UNK A          65.972  27.041  48.396  0.00  0.00    -0.003 A 
ATOM      6  C6  UNK A          66.320  27.292  49.745  0.00  0.00     0.065 A 
ATOM      7 Cl1  UNK A          65.825  28.297  52.273  0.00  0.00    -0.083 Cl
ATOM      8 Cl2  UNK A          67.865  26.761  50.392  0.00  0.00    -0.082 Cl
ENDROOT
BRANCH   5   9
ATOM      9  C7  UNK A          66.935  26.308  47.451  0.00  0.00     0.137 C 
BRANCH   9  10
ATOM     10  C8  UNK A          66.352  24.956  47.005  0.00  0.00     0.009 A 
ATOM     11  C9  UNK A          66.461  23.795  47.811  0.00  0.00     0.103 A 
ATOM     12  C10 UNK A          65.950  22.552  47.368  0.00  0.00     0.101 A 
ATOM     13  C11 UNK A          65.306  22.494  46.110  0.00  0.00     0.003 A 
ATOM     14  N2  UNK A          66.078  21.439  48.130  0.00  0.00    -0.254 NA
ATOM     15  C12 UNK A          65.187  23.642  45.314  0.00  0.00     0.011 A 
ATOM     16  C16 UNK A          64.783  21.270  45.656  0.00  0.00     0.012 A 
ATOM     17  C13 UNK A          65.713  24.863  45.753  0.00  0.00     0.009 A 
ATOM     18  C15 UNK A          64.927  20.134  46.464  0.00  0.00     0.021 A 
ATOM     19  C14 UNK A          65.586  20.265  47.693  0.00  0.00     0.112 A 
BRANCH  11  20
ATOM     20  O1  UNK A          67.082  23.858  49.032  0.00  0.00    -0.358 OA
ATOM     21  H1  UNK A          67.801  24.507  48.983  0.00  0.00     0.218 HD
ENDBRANCH  11  20
ENDBRANCH   9  10
BRANCH   9  22
ATOM     22  N1  UNK A          67.319  27.171  46.308  0.00  0.00    -0.318 N 
ATOM     23  HN1 UNK A          66.739  27.983  46.145  0.00  0.00     0.149 HD
BRANCH  22  24
ATOM     24  C17 UNK A          68.537  27.145  45.628  0.00  0.00     0.118 A 
ATOM     25  C18 UNK A          69.582  26.326  46.099  0.00  0.00     0.044 A 
ATOM     26  C19 UNK A          70.820  26.343  45.436  0.00  0.00     0.008 A 
ATOM     27  C20 UNK A          70.978  27.185  44.319  0.00  0.00    -0.033 A 
ATOM     28  C21 UNK A          69.876  27.959  43.911  0.00  0.00     0.116 A 
ATOM     29  C22 UNK A          72.302  27.276  43.579  0.00  0.00     0.046 C 
ATOM     30  N3  UNK A          68.689  27.936  44.546  0.00  0.00    -0.241 NA
ENDBRANCH  22  24
ENDBRANCH   9  22
ENDBRANCH   5   9
TORSDOF 5
ENDMDL
MODEL 4
REMARK VINA RESULT:      -6.2     21.000     23.611
REMARK  5 active torsions:
REMARK  status: ('A' for Active; 'I' for Inactive)
REMARK    1  A    between atoms: C5_5  and  C7_9 
REMARK    2  A    between atoms: C7_9  and  C8_10 
REMARK    3  A    between atoms: C7_9  and  N1_16 
REMARK    4  A    between atoms: C9_11  and  O1_17 
REMARK    5  A    between atoms: N1_16  and  C17_22 
ROOT
ATOM      1  C1  UNK A          47.238  19.855  58.122  0.00  0.00     0.059 A 
ATOM      2  C2  UNK A          47.463  21.110  57.534  0.00  0.00     0.022 A 
ATOM      3  C3  UNK A          47.066  21.343  56.212  0.00  0.00     0.002 A 
ATOM      4  C4  UNK A          46.451  20.320  55.472  0.00  0.00     0.008 A 
ATOM      5  C5  UNK A          46.227  19.045  56.041  0.00  0.00    -0.003 A 
ATOM      6  C6  UNK A          46.619  18.824  57.383  0.00  0.00     0.065 A 
ATOM      7 Cl1  UNK A          47.740  19.610  59.785  0.00  0.00    -0.083 Cl
ATOM      8 Cl2  UNK A          46.339  17.273  58.162  0.00  0.00    -0.082 Cl
ENDROOT
BRANCH   5   9
ATOM      9  C7  UNK A          45.554  17.937  55.218  0.00  0.00     0.137 C 
BRANCH   9  10
ATOM     10  C8  UNK A          44.070  18.257  54.969  0.00  0.00     0.009 A 
ATOM     11  C9  UNK A          43.548  18.398  53.658  0.00  0.00     0.103 A 
ATOM     12  C10 UNK A          42.187  18.728  53.449  0.00  0.00     0.101 A 
ATOM     13  C11 UNK A          41.350  18.894  54.577  0.00  0.00     0.003 A 
ATOM     14  N2  UNK A          41.697  18.887  52.196  0.00  0.00    -0.254 NA
ATOM     15  C12 UNK A          41.859  18.745  55.875  0.00  0.00     0.011 A 
ATOM     16  C16 UNK A          39.992  19.213  54.390  0.00  0.00     0.012 A 
ATOM     17  C13 UNK A          43.211  18.437  56.070  0.00  0.00     0.009 A 
ATOM     18  C15 UNK A          39.511  19.369  53.084  0.00  0.00     0.021 A 
ATOM     19  C14 UNK A          40.401  19.200  52.016  0.00  0.00     0.112 A 
BRANCH  11  20
ATOM     20  O1  UNK A          44.363  18.231  52.569  0.00  0.00    -0.358 OA
ATOM     21  H1  UNK A          45.210  17.863  52.867  0.00  0.00     0.218 HD
ENDBRANCH  11  20
ENDBRANCH   9  10
BRANCH   9  22
ATOM     22  N1  UNK A          46.301  17.675  53.966  0.00  0.00    -0.318 N 
ATOM     23  HN1 UNK A          46.167  18.340  53.216  0.00  0.00     0.149 HD
BRANCH  22  24
ATOM     24  C17 UNK A          47.370  16.791  53.813  0.00  0.00     0.118 A 
ATOM     25  C18 UNK A          47.885  16.534  52.528  0.00  0.00     0.044 A 
ATOM     26  C19 UNK A          48.930  15.606  52.379  0.00  0.00     0.008 A 
ATOM     27  C20 UNK A          49.426  14.957  53.526  0.00  0.00    -0.033 A 
ATOM     28  C21 UNK A          48.861  15.286  54.771  0.00  0.00     0.116 A 
ATOM     29  C22 UNK A          50.532  13.919  53.429  0.00  0.00     0.046 C 
ATOM     30  N3  UNK A          47.864  16.180  54.910  0.00  0.00    -0.241 NA
ENDBRANCH  22  24
ENDBRANCH   9  22
ENDBRANCH   5   9
TORSDOF 5
ENDMDL
MODEL 5
REMARK VINA RESULT:      -6.1     21.041     23.556
REMARK  5 active torsions:
REMARK  status: ('A' for Active; 'I' for Inactive)
REMARK    1  A    between atoms: C5_5  and  C7_9 
REMARK    2  A    between atoms: C7_9  and  C8_10 
REMARK    3  A    between atoms: C7_9  and  N1_16 
REMARK    4  A    between atoms: C9_11  and  O1_17 
REMARK    5  A    between atoms: N1_16  and  C17_22 
ROOT
ATOM      1  C1  UNK A          46.257  20.339  58.669  0.00  0.00     0.059 A 
ATOM      2  C2  UNK A          47.179  21.376  58.450  0.00  0.00     0.022 A 
ATOM      3  C3  UNK A          47.521  21.742  57.142  0.00  0.00     0.002 A 
ATOM      4  C4  UNK A          46.948  21.068  56.052  0.00  0.00     0.008 A 
ATOM      5  C5  UNK A          46.028  20.012  56.252  0.00  0.00    -0.003 A 
ATOM      6  C6  UNK A          45.679  19.659  57.577  0.00  0.00     0.065 A 
ATOM      7 Cl1  UNK A          45.850  19.922  60.324  0.00  0.00    -0.083 Cl
ATOM      8 Cl2  UNK A          44.515  18.381  57.894  0.00  0.00    -0.082 Cl
ENDROOT
BRANCH   5   9
ATOM      9  C7  UNK A          45.411  19.285  55.047  0.00  0.00     0.137 C 
BRANCH   9  10
ATOM     10  C8  UNK A          46.338  18.166  54.542  0.00  0.00     0.009 A 
ATOM     11  C9  UNK A          46.593  17.976  53.160  0.00  0.00     0.103 A 
ATOM     12  C10 UNK A          47.420  16.919  52.712  0.00  0.00     0.101 A 
ATOM     13  C11 UNK A          48.008  16.065  53.674  0.00  0.00     0.003 A 
ATOM     14  N2  UNK A          47.642  16.725  51.389  0.00  0.00    -0.254 NA
ATOM     15  C12 UNK A          47.767  16.255  55.042  0.00  0.00     0.011 A 
ATOM     16  C16 UNK A          48.841  15.014  53.249  0.00  0.00     0.012 A 
ATOM     17  C13 UNK A          46.932  17.292  55.473  0.00  0.00     0.009 A 
ATOM     18  C15 UNK A          49.056  14.837  51.876  0.00  0.00     0.021 A 
ATOM     19  C14 UNK A          48.432  15.716  50.981  0.00  0.00     0.112 A 
BRANCH  11  20
ATOM     20  O1  UNK A          46.025  18.811  52.233  0.00  0.00    -0.358 OA
ATOM     21  H1  UNK A          46.627  19.554  52.071  0.00  0.00     0.218 HD
ENDBRANCH  11  20
ENDBRANCH   9  10
BRANCH   9  22
ATOM     22  N1  UNK A          44.046  18.799  55.360  0.00  0.00    -0.318 N 
ATOM     23  HN1 UNK A          43.834  18.659  56.339  0.00  0.00     0.149 HD
BRANCH  22  24
ATOM     24  C17 UNK A          42.954  18.793  54.492  0.00  0.00     0.118 A 
ATOM     25  C18 UNK A          41.648  18.855  55.013  0.00  0.00     0.044 A 
ATOM     26  C19 UNK A          40.554  18.800  54.134  0.00  0.00     0.008 A 
ATOM     27  C20 UNK A          40.801  18.680  52.753  0.00  0.00    -0.033 A 
ATOM     28  C21 UNK A          42.139  18.640  52.320  0.00  0.00     0.116 A 
ATOM     29  C22 UNK A          39.662  18.581  51.752  0.00  0.00     0.046 C 
ATOM     30  N3  UNK A          43.185  18.698  53.166  0.00  0.00    -0.241 NA
ENDBRANCH  22  24
ENDBRANCH   9  22
ENDBRANCH   5   9
TORSDOF 5
ENDMDL
MODEL 6
REMARK VINA RESULT:      -6.0     20.912     23.363
REMARK  5 active torsions:
REMARK  status: ('A' for Active; 'I' for Inactive)
REMARK    1  A    between atoms: C5_5  and  C7_9 
REMARK    2  A    between atoms: C7_9  and  C8_10 
REMARK    3  A    between atoms: C7_9  and  N1_16 
REMARK    4  A    between atoms: C9_11  and  O1_17 
REMARK    5  A    between atoms: N1_16  and  C17_22 
ROOT
ATOM      1  C1  UNK A          41.345  18.614  56.920  0.00  0.00     0.059 A 
ATOM      2  C2  UNK A          40.753  18.648  55.648  0.00  0.00     0.022 A 
ATOM      3  C3  UNK A          41.558  18.666  54.502  0.00  0.00     0.002 A 
ATOM      4  C4  UNK A          42.956  18.660  54.627  0.00  0.00     0.008 A 
ATOM      5  C5  UNK A          43.573  18.640  55.899  0.00  0.00    -0.003 A 
ATOM      6  C6  UNK A          42.750  18.607  57.050  0.00  0.00     0.065 A 
ATOM      7 Cl1  UNK A          40.298  18.579  58.328  0.00  0.00    -0.083 Cl
ATOM      8 Cl2  UNK A          43.452  18.545  58.661  0.00  0.00    -0.082 Cl
ENDROOT
BRANCH   5   9
ATOM      9  C7  UNK A          45.105  18.633  56.018  0.00  0.00     0.137 C 
BRANCH   9  10
ATOM     10  C8  UNK A          45.732  17.631  55.034  0.00  0.00     0.009 A 
ATOM     11  C9  UNK A          46.106  18.011  53.720  0.00  0.00     0.103 A 
ATOM     12  C10 UNK A          46.648  17.067  52.816  0.00  0.00     0.101 A 
ATOM     13  C11 UNK A          46.831  15.735  53.257  0.00  0.00     0.003 A 
ATOM     14  N2  UNK A          46.982  17.427  51.554  0.00  0.00    -0.254 NA
ATOM     15  C12 UNK A          46.472  15.357  54.559  0.00  0.00     0.011 A 
ATOM     16  C16 UNK A          47.378  14.783  52.377  0.00  0.00     0.012 A 
ATOM     17  C13 UNK A          45.919  16.295  55.438  0.00  0.00     0.009 A 
ATOM     18  C15 UNK A          47.716  15.183  51.078  0.00  0.00     0.021 A 
ATOM     19  C14 UNK A          47.497  16.516  50.708  0.00  0.00     0.112 A 
BRANCH  11  20
ATOM     20  O1  UNK A          45.931  19.304  53.300  0.00  0.00    -0.358 OA
ATOM     21  H1  UNK A          45.676  19.296  52.364  0.00  0.00     0.218 HD
ENDBRANCH  11  20
ENDBRANCH   9  10
BRANCH   9  22
ATOM     22  N1  UNK A          45.656  20.001  55.872  0.00  0.00    -0.318 N 
ATOM     23  HN1 UNK A          45.090  20.659  55.352  0.00  0.00     0.149 HD
BRANCH  22  24
ATOM     24  C17 UNK A          46.710  20.548  56.604  0.00  0.00     0.118 A 
ATOM     25  C18 UNK A          47.619  21.419  55.974  0.00  0.00     0.044 A 
ATOM     26  C19 UNK A          48.705  21.927  56.707  0.00  0.00     0.008 A 
ATOM     27  C20 UNK A          48.851  21.541  58.053  0.00  0.00    -0.033 A 
ATOM     28  C21 UNK A          47.888  20.677  58.604  0.00  0.00     0.116 A 
ATOM     29  C22 UNK A          50.023  22.027  58.891  0.00  0.00     0.046 C 
ATOM     30  N3  UNK A          46.846  20.197  57.900  0.00  0.00    -0.241 NA
ENDBRANCH  22  24
ENDBRANCH   9  22
ENDBRANCH   5   9
TORSDOF 5
ENDMDL
MODEL 7
REMARK VINA RESULT:      -6.0      6.969     10.963
REMARK  5 active torsions:
REMARK  status: ('A' for Active; 'I' for Inactive)
REMARK    1  A    between atoms: C5_5  and  C7_9 
REMARK    2  A    between atoms: C7_9  and  C8_10 
REMARK    3  A    between atoms: C7_9  and  N1_16 
REMARK    4  A    between atoms: C9_11  and  O1_17 
REMARK    5  A    between atoms: N1_16  and  C17_22 
ROOT
ATOM      1  C1  UNK A          70.436  17.575  48.771  0.00  0.00     0.059 A 
ATOM      2  C2  UNK A          70.910  17.746  47.460  0.00  0.00     0.022 A 
ATOM      3  C3  UNK A          70.083  17.436  46.373  0.00  0.00     0.002 A 
ATOM      4  C4  UNK A          68.786  16.947  46.594  0.00  0.00     0.008 A 
ATOM      5  C5  UNK A          68.294  16.756  47.906  0.00  0.00    -0.003 A 
ATOM      6  C6  UNK A          69.133  17.085  48.998  0.00  0.00     0.065 A 
ATOM      7 Cl1  UNK A          71.501  17.986  50.103  0.00  0.00    -0.083 Cl
ATOM      8 Cl2  UNK A          68.572  16.904  50.654  0.00  0.00    -0.082 Cl
ENDROOT
BRANCH   5   9
ATOM      9  C7  UNK A          66.872  16.220  48.131  0.00  0.00     0.137 C 
BRANCH   9  10
ATOM     10  C8  UNK A          65.857  17.371  48.235  0.00  0.00     0.009 A 
ATOM     11  C9  UNK A          65.402  18.070  47.088  0.00  0.00     0.103 A 
ATOM     12  C10 UNK A          64.495  19.150  47.207  0.00  0.00     0.101 A 
ATOM     13  C11 UNK A          64.032  19.507  48.495  0.00  0.00     0.003 A 
ATOM     14  N2  UNK A          64.082  19.832  46.112  0.00  0.00    -0.254 NA
ATOM     15  C12 UNK A          64.472  18.812  49.631  0.00  0.00     0.011 A 
ATOM     16  C16 UNK A          63.124  20.572  48.634  0.00  0.00     0.012 A 
ATOM     17  C13 UNK A          65.384  17.758  49.504  0.00  0.00     0.009 A 
ATOM     18  C15 UNK A          62.710  21.258  47.485  0.00  0.00     0.021 A 
ATOM     19  C14 UNK A          63.219  20.856  46.243  0.00  0.00     0.112 A 
BRANCH  11  20
ATOM     20  O1  UNK A          65.850  17.716  45.842  0.00  0.00    -0.358 OA
ATOM     21  H1  UNK A          66.192  16.809  45.879  0.00  0.00     0.218 HD
ENDBRANCH  11  20
ENDBRANCH   9  10
BRANCH   9  22
ATOM     22  N1  UNK A          66.507  15.227  47.093  0.00  0.00    -0.318 N 
ATOM     23  HN1 UNK A          66.658  15.507  46.132  0.00  0.00     0.149 HD
BRANCH  22  24
ATOM     24  C17 UNK A          66.258  13.870  47.301  0.00  0.00     0.118 A 
ATOM     25  C18 UNK A          65.854  13.422  48.573  0.00  0.00     0.044 A 
ATOM     26  C19 UNK A          65.652  12.048  48.786  0.00  0.00     0.008 A 
ATOM     27  C20 UNK A          65.865  11.160  47.715  0.00  0.00    -0.033 A 
ATOM     28  C21 UNK A          66.254  11.697  46.475  0.00  0.00     0.116 A 
ATOM     29  C22 UNK A          65.697   9.659  47.889  0.00  0.00     0.046 C 
ATOM     30  N3  UNK A          66.441  13.015  46.273  0.00  0.00    -0.241 NA
ENDBRANCH  22  24
ENDBRANCH   9  22
ENDBRANCH   5   9
TORSDOF 5
ENDMDL
MODEL 8
REMARK VINA RESULT:      -6.0      1.960      6.520
REMARK  5 active torsions:
REMARK  status: ('A' for Active; 'I' for Inactive)
REMARK    1  A    between atoms: C5_5  and  C7_9 
REMARK    2  A    between atoms: C7_9  and  C8_10 
REMARK    3  A    between atoms: C7_9  and  N1_16 
REMARK    4  A    between atoms: C9_11  and  O1_17 
REMARK    5  A    between atoms: N1_16  and  C17_22 
ROOT
ATOM      1  C1  UNK A          64.747  27.479  50.632  0.00  0.00     0.059 A 
ATOM      2  C2  UNK A          65.093  26.867  51.847  0.00  0.00     0.022 A 
ATOM      3  C3  UNK A          65.879  25.707  51.846  0.00  0.00     0.002 A 
ATOM      4  C4  UNK A          66.313  25.154  50.631  0.00  0.00     0.008 A 
ATOM      5  C5  UNK A          65.965  25.748  49.395  0.00  0.00    -0.003 A 
ATOM      6  C6  UNK A          65.182  26.927  49.408  0.00  0.00     0.065 A 
ATOM      7 Cl1  UNK A          63.770  28.936  50.680  0.00  0.00    -0.083 Cl
ATOM      8 Cl2  UNK A          64.743  27.735  47.910  0.00  0.00    -0.082 Cl
ENDROOT
BRANCH   5   9
ATOM      9  C7  UNK A          66.448  25.130  48.075  0.00  0.00     0.137 C 
BRANCH   9  10
ATOM     10  C8  UNK A          67.744  25.802  47.591  0.00  0.00     0.009 A 
ATOM     11  C9  UNK A          67.860  26.344  46.285  0.00  0.00     0.103 A 
ATOM     12  C10 UNK A          69.073  26.926  45.845  0.00  0.00     0.101 A 
ATOM     13  C11 UNK A          70.165  26.977  46.743  0.00  0.00     0.003 A 
ATOM     14  N2  UNK A          69.188  27.420  44.589  0.00  0.00    -0.254 NA
ATOM     15  C12 UNK A          70.051  26.452  48.038  0.00  0.00     0.011 A 
ATOM     16  C16 UNK A          71.375  27.560  46.328  0.00  0.00     0.012 A 
ATOM     17  C13 UNK A          68.853  25.861  48.457  0.00  0.00     0.009 A 
ATOM     18  C15 UNK A          71.468  28.066  45.025  0.00  0.00     0.021 A 
ATOM     19  C14 UNK A          70.348  27.971  44.187  0.00  0.00     0.112 A 
BRANCH  11  20
ATOM     20  O1  UNK A          66.797  26.296  45.421  0.00  0.00    -0.358 OA
ATOM     21  H1  UNK A          66.867  27.037  44.799  0.00  0.00     0.218 HD
ENDBRANCH  11  20
ENDBRANCH   9  10
BRANCH   9  22
ATOM     22  N1  UNK A          66.575  23.658  48.192  0.00  0.00    -0.318 N 
ATOM     23  HN1 UNK A          67.230  23.318  48.883  0.00  0.00     0.149 HD
BRANCH  22  24
ATOM     24  C17 UNK A          65.697  22.710  47.665  0.00  0.00     0.118 A 
ATOM     25  C18 UNK A          65.202  22.868  46.357  0.00  0.00     0.044 A 
ATOM     26  C19 UNK A          64.281  21.935  45.853  0.00  0.00     0.008 A 
ATOM     27  C20 UNK A          63.878  20.869  46.679  0.00  0.00    -0.033 A 
ATOM     28  C21 UNK A          64.435  20.781  47.968  0.00  0.00     0.116 A 
ATOM     29  C22 UNK A          62.859  19.845  46.207  0.00  0.00     0.046 C 
ATOM     30  N3  UNK A          65.321  21.675  48.445  0.00  0.00    -0.241 NA
ENDBRANCH  22  24
ENDBRANCH   9  22
ENDBRANCH   5   9
TORSDOF 5
ENDMDL
MODEL 9
REMARK VINA RESULT:      -5.9      1.991      4.833
REMARK  5 active torsions:
REMARK  status: ('A' for Active; 'I' for Inactive)
REMARK    1  A    between atoms: C5_5  and  C7_9 
REMARK    2  A    between atoms: C7_9  and  C8_10 
REMARK    3  A    between atoms: C7_9  and  N1_16 
REMARK    4  A    between atoms: C9_11  and  O1_17 
REMARK    5  A    between atoms: N1_16  and  C17_22 
ROOT
ATOM      1  C1  UNK A          70.588  26.110  46.478  0.00  0.00     0.059 A 
ATOM      2  C2  UNK A          70.559  26.590  45.159  0.00  0.00     0.022 A 
ATOM      3  C3  UNK A          69.343  26.983  44.585  0.00  0.00     0.002 A 
ATOM      4  C4  UNK A          68.154  26.889  45.326  0.00  0.00     0.008 A 
ATOM      5  C5  UNK A          68.160  26.395  46.651  0.00  0.00    -0.003 A 
ATOM      6  C6  UNK A          69.396  26.014  47.226  0.00  0.00     0.065 A 
ATOM      7 Cl1  UNK A          72.134  25.639  47.161  0.00  0.00    -0.083 Cl
ATOM      8 Cl2  UNK A          69.478  25.425  48.881  0.00  0.00    -0.082 Cl
ENDROOT
BRANCH   5   9
ATOM      9  C7  UNK A          66.850  26.298  47.447  0.00  0.00     0.137 C 
BRANCH   9  10
ATOM     10  C8  UNK A          66.219  24.902  47.308  0.00  0.00     0.009 A 
ATOM     11  C9  UNK A          65.066  24.681  46.512  0.00  0.00     0.103 A 
ATOM     12  C10 UNK A          64.479  23.397  46.425  0.00  0.00     0.101 A 
ATOM     13  C11 UNK A          65.078  22.328  47.132  0.00  0.00     0.003 A 
ATOM     14  N2  UNK A          63.363  23.194  45.683  0.00  0.00    -0.254 NA
ATOM     15  C12 UNK A          66.224  22.540  47.912  0.00  0.00     0.011 A 
ATOM     16  C16 UNK A          64.514  21.042  47.050  0.00  0.00     0.012 A 
ATOM     17  C13 UNK A          66.786  23.819  48.006  0.00  0.00     0.009 A 
ATOM     18  C15 UNK A          63.362  20.859  46.275  0.00  0.00     0.021 A 
ATOM     19  C14 UNK A          62.818  21.966  45.611  0.00  0.00     0.112 A 
BRANCH  11  20
ATOM     20  O1  UNK A          64.493  25.720  45.825  0.00  0.00    -0.358 OA
ATOM     21  H1  UNK A          64.617  26.537  46.333  0.00  0.00     0.218 HD
ENDBRANCH  11  20
ENDBRANCH   9  10
BRANCH   9  22
ATOM     22  N1  UNK A          67.055  26.695  48.861  0.00  0.00    -0.318 N 
ATOM     23  HN1 UNK A          67.946  26.448  49.271  0.00  0.00     0.149 HD
BRANCH  22  24
ATOM     24  C17 UNK A          66.284  27.608  49.581  0.00  0.00     0.118 A 
ATOM     25  C18 UNK A          64.886  27.446  49.641  0.00  0.00     0.044 A 
ATOM     26  C19 UNK A          64.114  28.397  50.329  0.00  0.00     0.008 A 
ATOM     27  C20 UNK A          64.765  29.488  50.934  0.00  0.00    -0.033 A 
ATOM     28  C21 UNK A          66.166  29.562  50.835  0.00  0.00     0.116 A 
ATOM     29  C22 UNK A          63.984  30.569  51.663  0.00  0.00     0.046 C 
ATOM     30  N3  UNK A          66.904  28.646  50.180  0.00  0.00    -0.241 NA
ENDBRANCH  22  24
ENDBRANCH   9  22
ENDBRANCH   5   9
TORSDOF 5
ENDMDL
